
     Program PWSCF v.6.3 starts on 26Jun2019 at  2:28:48 

     This program is part of the open-source Quantum ESPRESSO suite
     for quantum simulation of materials; please cite
         "P. Giannozzi et al., J. Phys.:Condens. Matter 21 395502 (2009);
         "P. Giannozzi et al., J. Phys.:Condens. Matter 29 465901 (2017);
          URL http://www.quantum-espresso.org", 
     in publications or presentations arising from this work. More details at
     http://www.quantum-espresso.org/quote

     Parallel version (MPI & OpenMP), running on       2 processor cores
     Number of MPI processes:                 1
     Threads/MPI process:                     2

     MPI processes distributed on     1 nodes
     Reading input from /home/bokhamala/FeTi/FeTi_moreKpts/FeTi_other/band30.in
Warning: card  / ignored
Warning: card 1 CELL_DOFREE = 'VOLUME' ignored
Warning: card / ignored

     Current dimensions of program PWSCF are:
     Max number of different atomic species (ntypx) = 10
     Max number of k-points (npk) =  40000
     Max angular momentum in pseudopotentials (lmaxx) =  3

     Atomic positions and unit cell read from directory:
     ./FeTi.save/

               file Fe.pz-nd-rrkjus.UPF: wavefunction(s)  4S renormalized

     Subspace diagonalization in iterative solution of the eigenvalue problem:
     a serial algorithm will be used


     G-vector sticks info
     --------------------
     sticks:   dense  smooth     PW     G-vecs:    dense   smooth      PW
     Sum         997     497    161                23703     8385    1551



     bravais-lattice index     =            1
     lattice parameter (alat)  =       5.6000  a.u.
     unit-cell volume          =     175.6160 (a.u.)^3
     number of atoms/cell      =            2
     number of atomic types    =            2
     number of electrons       =        19.50
     number of Kohn-Sham states=            8
     kinetic-energy cutoff     =      50.0000  Ry
     charge density cutoff     =     400.0000  Ry
     Exchange-correlation      = SLA PZ NOGX NOGC ( 1  1  0  0 0 0)

     celldm(1)=   5.600000  celldm(2)=   0.000000  celldm(3)=   0.000000
     celldm(4)=   0.000000  celldm(5)=   0.000000  celldm(6)=   0.000000

     crystal axes: (cart. coord. in units of alat)
               a(1) = (   1.000000   0.000000   0.000000 )  
               a(2) = (   0.000000   1.000000   0.000000 )  
               a(3) = (   0.000000   0.000000   1.000000 )  

     reciprocal axes: (cart. coord. in units 2 pi/alat)
               b(1) = (  1.000000  0.000000  0.000000 )  
               b(2) = (  0.000000  1.000000  0.000000 )  
               b(3) = (  0.000000  0.000000  1.000000 )  


     PseudoPot. # 1 for Fe read from file:
     /shared/tools/qe/qe-6.3/pseudo/Fe.pz-nd-rrkjus.UPF
     MD5 check sum: b5eb2b1fd79b39c9eac5f7a31bc313a7
     Pseudo is Ultrasoft + core correction, Zval =  8.0
     Generated by new atomic code, or converted to UPF format
     Using radial grid of  957 points,  6 beta functions with: 
                l(1) =   0
                l(2) =   0
                l(3) =   1
                l(4) =   1
                l(5) =   2
                l(6) =   2
     Q(r) pseudized with 0 coefficients 


     PseudoPot. # 2 for Ti read from file:
     /shared/tools/qe/qe-6.3/pseudo/Ti.pz-sp-van_ak.UPF
     MD5 check sum: 93c5ef60b250b0ab110b997ad8a4342c
     Pseudo is Ultrasoft, Zval = 12.0
     Generated by new atomic code, or converted to UPF format
     Using radial grid of  851 points,  6 beta functions with: 
                l(1) =   0
                l(2) =   0
                l(3) =   1
                l(4) =   1
                l(5) =   2
                l(6) =   2
     Q(r) pseudized with  8 coefficients,  rinner =    1.000   1.000   1.000
                                                       1.000   1.000

     atomic species   valence    mass     pseudopotential
        Fe             8.00    55.84500     Fe( 1.00)
        Ti            12.00    47.86700     Ti( 1.00)

     48 Sym. Ops., with inversion, found


                                    s                        frac. trans.

      isym =  1     identity                                     

 cryst.   s( 1) = (     1          0          0      )
                  (     0          1          0      )
                  (     0          0          1      )

 cart.    s( 1) = (  1.0000000  0.0000000  0.0000000 )
                  (  0.0000000  1.0000000  0.0000000 )
                  (  0.0000000  0.0000000  1.0000000 )


      isym =  2     180 deg rotation - cart. axis [0,0,1]        

 cryst.   s( 2) = (    -1          0          0      )
                  (     0         -1          0      )
                  (     0          0          1      )

 cart.    s( 2) = ( -1.0000000  0.0000000  0.0000000 )
                  (  0.0000000 -1.0000000  0.0000000 )
                  (  0.0000000  0.0000000  1.0000000 )


      isym =  3     180 deg rotation - cart. axis [0,1,0]        

 cryst.   s( 3) = (    -1          0          0      )
                  (     0          1          0      )
                  (     0          0         -1      )

 cart.    s( 3) = ( -1.0000000  0.0000000  0.0000000 )
                  (  0.0000000  1.0000000  0.0000000 )
                  (  0.0000000  0.0000000 -1.0000000 )


      isym =  4     180 deg rotation - cart. axis [1,0,0]        

 cryst.   s( 4) = (     1          0          0      )
                  (     0         -1          0      )
                  (     0          0         -1      )

 cart.    s( 4) = (  1.0000000  0.0000000  0.0000000 )
                  (  0.0000000 -1.0000000  0.0000000 )
                  (  0.0000000  0.0000000 -1.0000000 )


      isym =  5     180 deg rotation - cart. axis [1,1,0]        

 cryst.   s( 5) = (     0          1          0      )
                  (     1          0          0      )
                  (     0          0         -1      )

 cart.    s( 5) = (  0.0000000  1.0000000  0.0000000 )
                  (  1.0000000  0.0000000  0.0000000 )
                  (  0.0000000  0.0000000 -1.0000000 )


      isym =  6     180 deg rotation - cart. axis [1,-1,0]       

 cryst.   s( 6) = (     0         -1          0      )
                  (    -1          0          0      )
                  (     0          0         -1      )

 cart.    s( 6) = (  0.0000000 -1.0000000  0.0000000 )
                  ( -1.0000000  0.0000000  0.0000000 )
                  (  0.0000000  0.0000000 -1.0000000 )


      isym =  7      90 deg rotation - cart. axis [0,0,-1]       

 cryst.   s( 7) = (     0         -1          0      )
                  (     1          0          0      )
                  (     0          0          1      )

 cart.    s( 7) = (  0.0000000  1.0000000  0.0000000 )
                  ( -1.0000000  0.0000000  0.0000000 )
                  (  0.0000000  0.0000000  1.0000000 )


      isym =  8      90 deg rotation - cart. axis [0,0,1]        

 cryst.   s( 8) = (     0          1          0      )
                  (    -1          0          0      )
                  (     0          0          1      )

 cart.    s( 8) = (  0.0000000 -1.0000000  0.0000000 )
                  (  1.0000000  0.0000000  0.0000000 )
                  (  0.0000000  0.0000000  1.0000000 )


      isym =  9     180 deg rotation - cart. axis [1,0,1]        

 cryst.   s( 9) = (     0          0          1      )
                  (     0         -1          0      )
                  (     1          0          0      )

 cart.    s( 9) = (  0.0000000  0.0000000  1.0000000 )
                  (  0.0000000 -1.0000000  0.0000000 )
                  (  1.0000000  0.0000000  0.0000000 )


      isym = 10     180 deg rotation - cart. axis [-1,0,1]       

 cryst.   s(10) = (     0          0         -1      )
                  (     0         -1          0      )
                  (    -1          0          0      )

 cart.    s(10) = (  0.0000000  0.0000000 -1.0000000 )
                  (  0.0000000 -1.0000000  0.0000000 )
                  ( -1.0000000  0.0000000  0.0000000 )


      isym = 11      90 deg rotation - cart. axis [0,1,0]        

 cryst.   s(11) = (     0          0         -1      )
                  (     0          1          0      )
                  (     1          0          0      )

 cart.    s(11) = (  0.0000000  0.0000000  1.0000000 )
                  (  0.0000000  1.0000000  0.0000000 )
                  ( -1.0000000  0.0000000  0.0000000 )


      isym = 12      90 deg rotation - cart. axis [0,-1,0]       

 cryst.   s(12) = (     0          0          1      )
                  (     0          1          0      )
                  (    -1          0          0      )

 cart.    s(12) = (  0.0000000  0.0000000 -1.0000000 )
                  (  0.0000000  1.0000000  0.0000000 )
                  (  1.0000000  0.0000000  0.0000000 )


      isym = 13     180 deg rotation - cart. axis [0,1,1]        

 cryst.   s(13) = (    -1          0          0      )
                  (     0          0          1      )
                  (     0          1          0      )

 cart.    s(13) = ( -1.0000000  0.0000000  0.0000000 )
                  (  0.0000000  0.0000000  1.0000000 )
                  (  0.0000000  1.0000000  0.0000000 )


      isym = 14     180 deg rotation - cart. axis [0,1,-1]       

 cryst.   s(14) = (    -1          0          0      )
                  (     0          0         -1      )
                  (     0         -1          0      )

 cart.    s(14) = ( -1.0000000  0.0000000  0.0000000 )
                  (  0.0000000  0.0000000 -1.0000000 )
                  (  0.0000000 -1.0000000  0.0000000 )


      isym = 15      90 deg rotation - cart. axis [-1,0,0]       

 cryst.   s(15) = (     1          0          0      )
                  (     0          0         -1      )
                  (     0          1          0      )

 cart.    s(15) = (  1.0000000  0.0000000  0.0000000 )
                  (  0.0000000  0.0000000  1.0000000 )
                  (  0.0000000 -1.0000000  0.0000000 )


      isym = 16      90 deg rotation - cart. axis [1,0,0]        

 cryst.   s(16) = (     1          0          0      )
                  (     0          0          1      )
                  (     0         -1          0      )

 cart.    s(16) = (  1.0000000  0.0000000  0.0000000 )
                  (  0.0000000  0.0000000 -1.0000000 )
                  (  0.0000000  1.0000000  0.0000000 )


      isym = 17     120 deg rotation - cart. axis [-1,-1,-1]     

 cryst.   s(17) = (     0          0          1      )
                  (     1          0          0      )
                  (     0          1          0      )

 cart.    s(17) = (  0.0000000  1.0000000  0.0000000 )
                  (  0.0000000  0.0000000  1.0000000 )
                  (  1.0000000  0.0000000  0.0000000 )


      isym = 18     120 deg rotation - cart. axis [-1,1,1]       

 cryst.   s(18) = (     0          0         -1      )
                  (    -1          0          0      )
                  (     0          1          0      )

 cart.    s(18) = (  0.0000000 -1.0000000  0.0000000 )
                  (  0.0000000  0.0000000  1.0000000 )
                  ( -1.0000000  0.0000000  0.0000000 )


      isym = 19     120 deg rotation - cart. axis [1,1,-1]       

 cryst.   s(19) = (     0          0         -1      )
                  (     1          0          0      )
                  (     0         -1          0      )

 cart.    s(19) = (  0.0000000  1.0000000  0.0000000 )
                  (  0.0000000  0.0000000 -1.0000000 )
                  ( -1.0000000  0.0000000  0.0000000 )


      isym = 20     120 deg rotation - cart. axis [1,-1,1]       

 cryst.   s(20) = (     0          0          1      )
                  (    -1          0          0      )
                  (     0         -1          0      )

 cart.    s(20) = (  0.0000000 -1.0000000  0.0000000 )
                  (  0.0000000  0.0000000 -1.0000000 )
                  (  1.0000000  0.0000000  0.0000000 )


      isym = 21     120 deg rotation - cart. axis [1,1,1]        

 cryst.   s(21) = (     0          1          0      )
                  (     0          0          1      )
                  (     1          0          0      )

 cart.    s(21) = (  0.0000000  0.0000000  1.0000000 )
                  (  1.0000000  0.0000000  0.0000000 )
                  (  0.0000000  1.0000000  0.0000000 )


      isym = 22     120 deg rotation - cart. axis [-1,1,-1]      

 cryst.   s(22) = (     0         -1          0      )
                  (     0          0         -1      )
                  (     1          0          0      )

 cart.    s(22) = (  0.0000000  0.0000000  1.0000000 )
                  ( -1.0000000  0.0000000  0.0000000 )
                  (  0.0000000 -1.0000000  0.0000000 )


      isym = 23     120 deg rotation - cart. axis [1,-1,-1]      

 cryst.   s(23) = (     0         -1          0      )
                  (     0          0          1      )
                  (    -1          0          0      )

 cart.    s(23) = (  0.0000000  0.0000000 -1.0000000 )
                  ( -1.0000000  0.0000000  0.0000000 )
                  (  0.0000000  1.0000000  0.0000000 )


      isym = 24     120 deg rotation - cart. axis [-1,-1,1]      

 cryst.   s(24) = (     0          1          0      )
                  (     0          0         -1      )
                  (    -1          0          0      )

 cart.    s(24) = (  0.0000000  0.0000000 -1.0000000 )
                  (  1.0000000  0.0000000  0.0000000 )
                  (  0.0000000 -1.0000000  0.0000000 )


      isym = 25     inversion                                    

 cryst.   s(25) = (    -1          0          0      )
                  (     0         -1          0      )
                  (     0          0         -1      )

 cart.    s(25) = ( -1.0000000  0.0000000  0.0000000 )
                  (  0.0000000 -1.0000000  0.0000000 )
                  (  0.0000000  0.0000000 -1.0000000 )


      isym = 26     inv. 180 deg rotation - cart. axis [0,0,1]   

 cryst.   s(26) = (     1          0          0      )
                  (     0          1          0      )
                  (     0          0         -1      )

 cart.    s(26) = (  1.0000000  0.0000000  0.0000000 )
                  (  0.0000000  1.0000000  0.0000000 )
                  (  0.0000000  0.0000000 -1.0000000 )


      isym = 27     inv. 180 deg rotation - cart. axis [0,1,0]   

 cryst.   s(27) = (     1          0          0      )
                  (     0         -1          0      )
                  (     0          0          1      )

 cart.    s(27) = (  1.0000000  0.0000000  0.0000000 )
                  (  0.0000000 -1.0000000  0.0000000 )
                  (  0.0000000  0.0000000  1.0000000 )


      isym = 28     inv. 180 deg rotation - cart. axis [1,0,0]   

 cryst.   s(28) = (    -1          0          0      )
                  (     0          1          0      )
                  (     0          0          1      )

 cart.    s(28) = ( -1.0000000  0.0000000  0.0000000 )
                  (  0.0000000  1.0000000  0.0000000 )
                  (  0.0000000  0.0000000  1.0000000 )


      isym = 29     inv. 180 deg rotation - cart. axis [1,1,0]   

 cryst.   s(29) = (     0         -1          0      )
                  (    -1          0          0      )
                  (     0          0          1      )

 cart.    s(29) = (  0.0000000 -1.0000000  0.0000000 )
                  ( -1.0000000  0.0000000  0.0000000 )
                  (  0.0000000  0.0000000  1.0000000 )


      isym = 30     inv. 180 deg rotation - cart. axis [1,-1,0]  

 cryst.   s(30) = (     0          1          0      )
                  (     1          0          0      )
                  (     0          0          1      )

 cart.    s(30) = (  0.0000000  1.0000000  0.0000000 )
                  (  1.0000000  0.0000000  0.0000000 )
                  (  0.0000000  0.0000000  1.0000000 )


      isym = 31     inv.  90 deg rotation - cart. axis [0,0,-1]  

 cryst.   s(31) = (     0          1          0      )
                  (    -1          0          0      )
                  (     0          0         -1      )

 cart.    s(31) = (  0.0000000 -1.0000000  0.0000000 )
                  (  1.0000000  0.0000000  0.0000000 )
                  (  0.0000000  0.0000000 -1.0000000 )


      isym = 32     inv.  90 deg rotation - cart. axis [0,0,1]   

 cryst.   s(32) = (     0         -1          0      )
                  (     1          0          0      )
                  (     0          0         -1      )

 cart.    s(32) = (  0.0000000  1.0000000  0.0000000 )
                  ( -1.0000000  0.0000000  0.0000000 )
                  (  0.0000000  0.0000000 -1.0000000 )


      isym = 33     inv. 180 deg rotation - cart. axis [1,0,1]   

 cryst.   s(33) = (     0          0         -1      )
                  (     0          1          0      )
                  (    -1          0          0      )

 cart.    s(33) = (  0.0000000  0.0000000 -1.0000000 )
                  (  0.0000000  1.0000000  0.0000000 )
                  ( -1.0000000  0.0000000  0.0000000 )


      isym = 34     inv. 180 deg rotation - cart. axis [-1,0,1]  

 cryst.   s(34) = (     0          0          1      )
                  (     0          1          0      )
                  (     1          0          0      )

 cart.    s(34) = (  0.0000000  0.0000000  1.0000000 )
                  (  0.0000000  1.0000000  0.0000000 )
                  (  1.0000000  0.0000000  0.0000000 )


      isym = 35     inv.  90 deg rotation - cart. axis [0,1,0]   

 cryst.   s(35) = (     0          0          1      )
                  (     0         -1          0      )
                  (    -1          0          0      )

 cart.    s(35) = (  0.0000000  0.0000000 -1.0000000 )
                  (  0.0000000 -1.0000000  0.0000000 )
                  (  1.0000000  0.0000000  0.0000000 )


      isym = 36     inv.  90 deg rotation - cart. axis [0,-1,0]  

 cryst.   s(36) = (     0          0         -1      )
                  (     0         -1          0      )
                  (     1          0          0      )

 cart.    s(36) = (  0.0000000  0.0000000  1.0000000 )
                  (  0.0000000 -1.0000000  0.0000000 )
                  ( -1.0000000  0.0000000  0.0000000 )


      isym = 37     inv. 180 deg rotation - cart. axis [0,1,1]   

 cryst.   s(37) = (     1          0          0      )
                  (     0          0         -1      )
                  (     0         -1          0      )

 cart.    s(37) = (  1.0000000  0.0000000  0.0000000 )
                  (  0.0000000  0.0000000 -1.0000000 )
                  (  0.0000000 -1.0000000  0.0000000 )


      isym = 38     inv. 180 deg rotation - cart. axis [0,1,-1]  

 cryst.   s(38) = (     1          0          0      )
                  (     0          0          1      )
                  (     0          1          0      )

 cart.    s(38) = (  1.0000000  0.0000000  0.0000000 )
                  (  0.0000000  0.0000000  1.0000000 )
                  (  0.0000000  1.0000000  0.0000000 )


      isym = 39     inv.  90 deg rotation - cart. axis [-1,0,0]  

 cryst.   s(39) = (    -1          0          0      )
                  (     0          0          1      )
                  (     0         -1          0      )

 cart.    s(39) = ( -1.0000000  0.0000000  0.0000000 )
                  (  0.0000000  0.0000000 -1.0000000 )
                  (  0.0000000  1.0000000  0.0000000 )


      isym = 40     inv.  90 deg rotation - cart. axis [1,0,0]   

 cryst.   s(40) = (    -1          0          0      )
                  (     0          0         -1      )
                  (     0          1          0      )

 cart.    s(40) = ( -1.0000000  0.0000000  0.0000000 )
                  (  0.0000000  0.0000000  1.0000000 )
                  (  0.0000000 -1.0000000  0.0000000 )


      isym = 41     inv. 120 deg rotation - cart. axis [-1,-1,-1]

 cryst.   s(41) = (     0          0         -1      )
                  (    -1          0          0      )
                  (     0         -1          0      )

 cart.    s(41) = (  0.0000000 -1.0000000  0.0000000 )
                  (  0.0000000  0.0000000 -1.0000000 )
                  ( -1.0000000  0.0000000  0.0000000 )


      isym = 42     inv. 120 deg rotation - cart. axis [-1,1,1]  

 cryst.   s(42) = (     0          0          1      )
                  (     1          0          0      )
                  (     0         -1          0      )

 cart.    s(42) = (  0.0000000  1.0000000  0.0000000 )
                  (  0.0000000  0.0000000 -1.0000000 )
                  (  1.0000000  0.0000000  0.0000000 )


      isym = 43     inv. 120 deg rotation - cart. axis [1,1,-1]  

 cryst.   s(43) = (     0          0          1      )
                  (    -1          0          0      )
                  (     0          1          0      )

 cart.    s(43) = (  0.0000000 -1.0000000  0.0000000 )
                  (  0.0000000  0.0000000  1.0000000 )
                  (  1.0000000  0.0000000  0.0000000 )


      isym = 44     inv. 120 deg rotation - cart. axis [1,-1,1]  

 cryst.   s(44) = (     0          0         -1      )
                  (     1          0          0      )
                  (     0          1          0      )

 cart.    s(44) = (  0.0000000  1.0000000  0.0000000 )
                  (  0.0000000  0.0000000  1.0000000 )
                  ( -1.0000000  0.0000000  0.0000000 )


      isym = 45     inv. 120 deg rotation - cart. axis [1,1,1]   

 cryst.   s(45) = (     0         -1          0      )
                  (     0          0         -1      )
                  (    -1          0          0      )

 cart.    s(45) = (  0.0000000  0.0000000 -1.0000000 )
                  ( -1.0000000  0.0000000  0.0000000 )
                  (  0.0000000 -1.0000000  0.0000000 )


      isym = 46     inv. 120 deg rotation - cart. axis [-1,1,-1] 

 cryst.   s(46) = (     0          1          0      )
                  (     0          0          1      )
                  (    -1          0          0      )

 cart.    s(46) = (  0.0000000  0.0000000 -1.0000000 )
                  (  1.0000000  0.0000000  0.0000000 )
                  (  0.0000000  1.0000000  0.0000000 )


      isym = 47     inv. 120 deg rotation - cart. axis [1,-1,-1] 

 cryst.   s(47) = (     0          1          0      )
                  (     0          0         -1      )
                  (     1          0          0      )

 cart.    s(47) = (  0.0000000  0.0000000  1.0000000 )
                  (  1.0000000  0.0000000  0.0000000 )
                  (  0.0000000 -1.0000000  0.0000000 )


      isym = 48     inv. 120 deg rotation - cart. axis [-1,-1,1] 

 cryst.   s(48) = (     0         -1          0      )
                  (     0          0          1      )
                  (     1          0          0      )

 cart.    s(48) = (  0.0000000  0.0000000  1.0000000 )
                  ( -1.0000000  0.0000000  0.0000000 )
                  (  0.0000000  1.0000000  0.0000000 )


     point group O_h (m-3m) 
     there are 10 classes
     the character table:

       E     8C3   3C2   6C4   6C2'  i     8S6   3s_h  6S4   6s_d 
A_1g   1.00  1.00  1.00  1.00  1.00  1.00  1.00  1.00  1.00  1.00
A_2g   1.00  1.00  1.00 -1.00 -1.00  1.00  1.00  1.00 -1.00 -1.00
E_g    2.00 -1.00  2.00  0.00  0.00  2.00 -1.00  2.00  0.00  0.00
T_1g   3.00  0.00 -1.00  1.00 -1.00  3.00  0.00 -1.00  1.00 -1.00
T_2g   3.00  0.00 -1.00 -1.00  1.00  3.00  0.00 -1.00 -1.00  1.00
A_1u   1.00  1.00  1.00  1.00  1.00 -1.00 -1.00 -1.00 -1.00 -1.00
A_2u   1.00  1.00  1.00 -1.00 -1.00 -1.00 -1.00 -1.00  1.00  1.00
E_u    2.00 -1.00  2.00  0.00  0.00 -2.00  1.00 -2.00  0.00  0.00
T_1u   3.00  0.00 -1.00  1.00 -1.00 -3.00  0.00  1.00 -1.00  1.00
T_2u   3.00  0.00 -1.00 -1.00  1.00 -3.00  0.00  1.00  1.00 -1.00

     the symmetry operations in each class and the name of the first element:

     E        1
          identity                                               
     8C3     17   19   20   18   24   21   22   23
          120 deg rotation - cart. axis [-1,-1,-1]               
     3C2      2    4    3
          180 deg rotation - cart. axis [0,0,1]                  
     6C4      7    8   15   16   12   11
           90 deg rotation - cart. axis [0,0,-1]                 
     6C2'     5    6   14   13   10    9
          180 deg rotation - cart. axis [1,1,0]                  
     i       25
          inversion                                              
     8S6     41   43   44   42   48   45   46   47
          inv. 120 deg rotation - cart. axis [-1,-1,-1]          
     3s_h    26   28   27
          inv. 180 deg rotation - cart. axis [0,0,1]             
     6S4     31   32   39   40   36   35
          inv.  90 deg rotation - cart. axis [0,0,-1]            
     6s_d    29   30   38   37   34   33
          inv. 180 deg rotation - cart. axis [1,1,0]             

   Cartesian axes

     site n.     atom                  positions (alat units)
         1           Fe  tau(   1) = (   0.0000000   0.0000000   0.0000000  )
         2           Ti  tau(   2) = (   0.5000000   0.5000000   0.5000000  )

   Crystallographic axes

     site n.     atom                  positions (cryst. coord.)
         1           Fe  tau(   1) = (  0.0000000  0.0000000  0.0000000  )
         2           Ti  tau(   2) = (  0.5000000  0.5000000  0.5000000  )

     number of k points=  4761  Fermi-Dirac smearing, width (Ry)=  0.0100
                       cart. coord. in units 2pi/alat
        k(    1) = (   0.0000000   0.0000000   0.0000000), wk =   0.0004201
        k(    2) = (   0.0007353   0.0000000   0.0000000), wk =   0.0004201
        k(    3) = (   0.0014706   0.0000000   0.0000000), wk =   0.0004201
        k(    4) = (   0.0022059   0.0000000   0.0000000), wk =   0.0004201
        k(    5) = (   0.0029412   0.0000000   0.0000000), wk =   0.0004201
        k(    6) = (   0.0036765   0.0000000   0.0000000), wk =   0.0004201
        k(    7) = (   0.0044118   0.0000000   0.0000000), wk =   0.0004201
        k(    8) = (   0.0051471   0.0000000   0.0000000), wk =   0.0004201
        k(    9) = (   0.0058824   0.0000000   0.0000000), wk =   0.0004201
        k(   10) = (   0.0066176   0.0000000   0.0000000), wk =   0.0004201
        k(   11) = (   0.0073529   0.0000000   0.0000000), wk =   0.0004201
        k(   12) = (   0.0080882   0.0000000   0.0000000), wk =   0.0004201
        k(   13) = (   0.0088235   0.0000000   0.0000000), wk =   0.0004201
        k(   14) = (   0.0095588   0.0000000   0.0000000), wk =   0.0004201
        k(   15) = (   0.0102941   0.0000000   0.0000000), wk =   0.0004201
        k(   16) = (   0.0110294   0.0000000   0.0000000), wk =   0.0004201
        k(   17) = (   0.0117647   0.0000000   0.0000000), wk =   0.0004201
        k(   18) = (   0.0125000   0.0000000   0.0000000), wk =   0.0004201
        k(   19) = (   0.0132353   0.0000000   0.0000000), wk =   0.0004201
        k(   20) = (   0.0139706   0.0000000   0.0000000), wk =   0.0004201
        k(   21) = (   0.0147059   0.0000000   0.0000000), wk =   0.0004201
        k(   22) = (   0.0154412   0.0000000   0.0000000), wk =   0.0004201
        k(   23) = (   0.0161765   0.0000000   0.0000000), wk =   0.0004201
        k(   24) = (   0.0169118   0.0000000   0.0000000), wk =   0.0004201
        k(   25) = (   0.0176471   0.0000000   0.0000000), wk =   0.0004201
        k(   26) = (   0.0183824   0.0000000   0.0000000), wk =   0.0004201
        k(   27) = (   0.0191176   0.0000000   0.0000000), wk =   0.0004201
        k(   28) = (   0.0198529   0.0000000   0.0000000), wk =   0.0004201
        k(   29) = (   0.0205882   0.0000000   0.0000000), wk =   0.0004201
        k(   30) = (   0.0213235   0.0000000   0.0000000), wk =   0.0004201
        k(   31) = (   0.0220588   0.0000000   0.0000000), wk =   0.0004201
        k(   32) = (   0.0227941   0.0000000   0.0000000), wk =   0.0004201
        k(   33) = (   0.0235294   0.0000000   0.0000000), wk =   0.0004201
        k(   34) = (   0.0242647   0.0000000   0.0000000), wk =   0.0004201
        k(   35) = (   0.0250000   0.0000000   0.0000000), wk =   0.0004201
        k(   36) = (   0.0257353   0.0000000   0.0000000), wk =   0.0004201
        k(   37) = (   0.0264706   0.0000000   0.0000000), wk =   0.0004201
        k(   38) = (   0.0272059   0.0000000   0.0000000), wk =   0.0004201
        k(   39) = (   0.0279412   0.0000000   0.0000000), wk =   0.0004201
        k(   40) = (   0.0286765   0.0000000   0.0000000), wk =   0.0004201
        k(   41) = (   0.0294118   0.0000000   0.0000000), wk =   0.0004201
        k(   42) = (   0.0301471   0.0000000   0.0000000), wk =   0.0004201
        k(   43) = (   0.0308824   0.0000000   0.0000000), wk =   0.0004201
        k(   44) = (   0.0316176   0.0000000   0.0000000), wk =   0.0004201
        k(   45) = (   0.0323529   0.0000000   0.0000000), wk =   0.0004201
        k(   46) = (   0.0330882   0.0000000   0.0000000), wk =   0.0004201
        k(   47) = (   0.0338235   0.0000000   0.0000000), wk =   0.0004201
        k(   48) = (   0.0345588   0.0000000   0.0000000), wk =   0.0004201
        k(   49) = (   0.0352941   0.0000000   0.0000000), wk =   0.0004201
        k(   50) = (   0.0360294   0.0000000   0.0000000), wk =   0.0004201
        k(   51) = (   0.0367647   0.0000000   0.0000000), wk =   0.0004201
        k(   52) = (   0.0375000   0.0000000   0.0000000), wk =   0.0004201
        k(   53) = (   0.0382353   0.0000000   0.0000000), wk =   0.0004201
        k(   54) = (   0.0389706   0.0000000   0.0000000), wk =   0.0004201
        k(   55) = (   0.0397059   0.0000000   0.0000000), wk =   0.0004201
        k(   56) = (   0.0404412   0.0000000   0.0000000), wk =   0.0004201
        k(   57) = (   0.0411765   0.0000000   0.0000000), wk =   0.0004201
        k(   58) = (   0.0419118   0.0000000   0.0000000), wk =   0.0004201
        k(   59) = (   0.0426471   0.0000000   0.0000000), wk =   0.0004201
        k(   60) = (   0.0433824   0.0000000   0.0000000), wk =   0.0004201
        k(   61) = (   0.0441176   0.0000000   0.0000000), wk =   0.0004201
        k(   62) = (   0.0448529   0.0000000   0.0000000), wk =   0.0004201
        k(   63) = (   0.0455882   0.0000000   0.0000000), wk =   0.0004201
        k(   64) = (   0.0463235   0.0000000   0.0000000), wk =   0.0004201
        k(   65) = (   0.0470588   0.0000000   0.0000000), wk =   0.0004201
        k(   66) = (   0.0477941   0.0000000   0.0000000), wk =   0.0004201
        k(   67) = (   0.0485294   0.0000000   0.0000000), wk =   0.0004201
        k(   68) = (   0.0492647   0.0000000   0.0000000), wk =   0.0004201
        k(   69) = (   0.0500000   0.0000000   0.0000000), wk =   0.0004201
        k(   70) = (   0.0507353   0.0000000   0.0000000), wk =   0.0004201
        k(   71) = (   0.0514706   0.0000000   0.0000000), wk =   0.0004201
        k(   72) = (   0.0522059   0.0000000   0.0000000), wk =   0.0004201
        k(   73) = (   0.0529412   0.0000000   0.0000000), wk =   0.0004201
        k(   74) = (   0.0536765   0.0000000   0.0000000), wk =   0.0004201
        k(   75) = (   0.0544118   0.0000000   0.0000000), wk =   0.0004201
        k(   76) = (   0.0551471   0.0000000   0.0000000), wk =   0.0004201
        k(   77) = (   0.0558824   0.0000000   0.0000000), wk =   0.0004201
        k(   78) = (   0.0566176   0.0000000   0.0000000), wk =   0.0004201
        k(   79) = (   0.0573529   0.0000000   0.0000000), wk =   0.0004201
        k(   80) = (   0.0580882   0.0000000   0.0000000), wk =   0.0004201
        k(   81) = (   0.0588235   0.0000000   0.0000000), wk =   0.0004201
        k(   82) = (   0.0595588   0.0000000   0.0000000), wk =   0.0004201
        k(   83) = (   0.0602941   0.0000000   0.0000000), wk =   0.0004201
        k(   84) = (   0.0610294   0.0000000   0.0000000), wk =   0.0004201
        k(   85) = (   0.0617647   0.0000000   0.0000000), wk =   0.0004201
        k(   86) = (   0.0625000   0.0000000   0.0000000), wk =   0.0004201
        k(   87) = (   0.0632353   0.0000000   0.0000000), wk =   0.0004201
        k(   88) = (   0.0639706   0.0000000   0.0000000), wk =   0.0004201
        k(   89) = (   0.0647059   0.0000000   0.0000000), wk =   0.0004201
        k(   90) = (   0.0654412   0.0000000   0.0000000), wk =   0.0004201
        k(   91) = (   0.0661765   0.0000000   0.0000000), wk =   0.0004201
        k(   92) = (   0.0669118   0.0000000   0.0000000), wk =   0.0004201
        k(   93) = (   0.0676471   0.0000000   0.0000000), wk =   0.0004201
        k(   94) = (   0.0683824   0.0000000   0.0000000), wk =   0.0004201
        k(   95) = (   0.0691176   0.0000000   0.0000000), wk =   0.0004201
        k(   96) = (   0.0698529   0.0000000   0.0000000), wk =   0.0004201
        k(   97) = (   0.0705882   0.0000000   0.0000000), wk =   0.0004201
        k(   98) = (   0.0713235   0.0000000   0.0000000), wk =   0.0004201
        k(   99) = (   0.0720588   0.0000000   0.0000000), wk =   0.0004201
        k(  100) = (   0.0727941   0.0000000   0.0000000), wk =   0.0004201
        k(  101) = (   0.0735294   0.0000000   0.0000000), wk =   0.0004201
        k(  102) = (   0.0742647   0.0000000   0.0000000), wk =   0.0004201
        k(  103) = (   0.0750000   0.0000000   0.0000000), wk =   0.0004201
        k(  104) = (   0.0757353   0.0000000   0.0000000), wk =   0.0004201
        k(  105) = (   0.0764706   0.0000000   0.0000000), wk =   0.0004201
        k(  106) = (   0.0772059   0.0000000   0.0000000), wk =   0.0004201
        k(  107) = (   0.0779412   0.0000000   0.0000000), wk =   0.0004201
        k(  108) = (   0.0786765   0.0000000   0.0000000), wk =   0.0004201
        k(  109) = (   0.0794118   0.0000000   0.0000000), wk =   0.0004201
        k(  110) = (   0.0801471   0.0000000   0.0000000), wk =   0.0004201
        k(  111) = (   0.0808824   0.0000000   0.0000000), wk =   0.0004201
        k(  112) = (   0.0816176   0.0000000   0.0000000), wk =   0.0004201
        k(  113) = (   0.0823529   0.0000000   0.0000000), wk =   0.0004201
        k(  114) = (   0.0830882   0.0000000   0.0000000), wk =   0.0004201
        k(  115) = (   0.0838235   0.0000000   0.0000000), wk =   0.0004201
        k(  116) = (   0.0845588   0.0000000   0.0000000), wk =   0.0004201
        k(  117) = (   0.0852941   0.0000000   0.0000000), wk =   0.0004201
        k(  118) = (   0.0860294   0.0000000   0.0000000), wk =   0.0004201
        k(  119) = (   0.0867647   0.0000000   0.0000000), wk =   0.0004201
        k(  120) = (   0.0875000   0.0000000   0.0000000), wk =   0.0004201
        k(  121) = (   0.0882353   0.0000000   0.0000000), wk =   0.0004201
        k(  122) = (   0.0889706   0.0000000   0.0000000), wk =   0.0004201
        k(  123) = (   0.0897059   0.0000000   0.0000000), wk =   0.0004201
        k(  124) = (   0.0904412   0.0000000   0.0000000), wk =   0.0004201
        k(  125) = (   0.0911765   0.0000000   0.0000000), wk =   0.0004201
        k(  126) = (   0.0919118   0.0000000   0.0000000), wk =   0.0004201
        k(  127) = (   0.0926471   0.0000000   0.0000000), wk =   0.0004201
        k(  128) = (   0.0933824   0.0000000   0.0000000), wk =   0.0004201
        k(  129) = (   0.0941176   0.0000000   0.0000000), wk =   0.0004201
        k(  130) = (   0.0948529   0.0000000   0.0000000), wk =   0.0004201
        k(  131) = (   0.0955882   0.0000000   0.0000000), wk =   0.0004201
        k(  132) = (   0.0963235   0.0000000   0.0000000), wk =   0.0004201
        k(  133) = (   0.0970588   0.0000000   0.0000000), wk =   0.0004201
        k(  134) = (   0.0977941   0.0000000   0.0000000), wk =   0.0004201
        k(  135) = (   0.0985294   0.0000000   0.0000000), wk =   0.0004201
        k(  136) = (   0.0992647   0.0000000   0.0000000), wk =   0.0004201
        k(  137) = (   0.1000000   0.0000000   0.0000000), wk =   0.0004201
        k(  138) = (   0.1007353   0.0000000   0.0000000), wk =   0.0004201
        k(  139) = (   0.1014706   0.0000000   0.0000000), wk =   0.0004201
        k(  140) = (   0.1022059   0.0000000   0.0000000), wk =   0.0004201
        k(  141) = (   0.1029412   0.0000000   0.0000000), wk =   0.0004201
        k(  142) = (   0.1036765   0.0000000   0.0000000), wk =   0.0004201
        k(  143) = (   0.1044118   0.0000000   0.0000000), wk =   0.0004201
        k(  144) = (   0.1051471   0.0000000   0.0000000), wk =   0.0004201
        k(  145) = (   0.1058824   0.0000000   0.0000000), wk =   0.0004201
        k(  146) = (   0.1066176   0.0000000   0.0000000), wk =   0.0004201
        k(  147) = (   0.1073529   0.0000000   0.0000000), wk =   0.0004201
        k(  148) = (   0.1080882   0.0000000   0.0000000), wk =   0.0004201
        k(  149) = (   0.1088235   0.0000000   0.0000000), wk =   0.0004201
        k(  150) = (   0.1095588   0.0000000   0.0000000), wk =   0.0004201
        k(  151) = (   0.1102941   0.0000000   0.0000000), wk =   0.0004201
        k(  152) = (   0.1110294   0.0000000   0.0000000), wk =   0.0004201
        k(  153) = (   0.1117647   0.0000000   0.0000000), wk =   0.0004201
        k(  154) = (   0.1125000   0.0000000   0.0000000), wk =   0.0004201
        k(  155) = (   0.1132353   0.0000000   0.0000000), wk =   0.0004201
        k(  156) = (   0.1139706   0.0000000   0.0000000), wk =   0.0004201
        k(  157) = (   0.1147059   0.0000000   0.0000000), wk =   0.0004201
        k(  158) = (   0.1154412   0.0000000   0.0000000), wk =   0.0004201
        k(  159) = (   0.1161765   0.0000000   0.0000000), wk =   0.0004201
        k(  160) = (   0.1169118   0.0000000   0.0000000), wk =   0.0004201
        k(  161) = (   0.1176471   0.0000000   0.0000000), wk =   0.0004201
        k(  162) = (   0.1183824   0.0000000   0.0000000), wk =   0.0004201
        k(  163) = (   0.1191176   0.0000000   0.0000000), wk =   0.0004201
        k(  164) = (   0.1198529   0.0000000   0.0000000), wk =   0.0004201
        k(  165) = (   0.1205882   0.0000000   0.0000000), wk =   0.0004201
        k(  166) = (   0.1213235   0.0000000   0.0000000), wk =   0.0004201
        k(  167) = (   0.1220588   0.0000000   0.0000000), wk =   0.0004201
        k(  168) = (   0.1227941   0.0000000   0.0000000), wk =   0.0004201
        k(  169) = (   0.1235294   0.0000000   0.0000000), wk =   0.0004201
        k(  170) = (   0.1242647   0.0000000   0.0000000), wk =   0.0004201
        k(  171) = (   0.1250000   0.0000000   0.0000000), wk =   0.0004201
        k(  172) = (   0.1257353   0.0000000   0.0000000), wk =   0.0004201
        k(  173) = (   0.1264706   0.0000000   0.0000000), wk =   0.0004201
        k(  174) = (   0.1272059   0.0000000   0.0000000), wk =   0.0004201
        k(  175) = (   0.1279412   0.0000000   0.0000000), wk =   0.0004201
        k(  176) = (   0.1286765   0.0000000   0.0000000), wk =   0.0004201
        k(  177) = (   0.1294118   0.0000000   0.0000000), wk =   0.0004201
        k(  178) = (   0.1301471   0.0000000   0.0000000), wk =   0.0004201
        k(  179) = (   0.1308824   0.0000000   0.0000000), wk =   0.0004201
        k(  180) = (   0.1316176   0.0000000   0.0000000), wk =   0.0004201
        k(  181) = (   0.1323529   0.0000000   0.0000000), wk =   0.0004201
        k(  182) = (   0.1330882   0.0000000   0.0000000), wk =   0.0004201
        k(  183) = (   0.1338235   0.0000000   0.0000000), wk =   0.0004201
        k(  184) = (   0.1345588   0.0000000   0.0000000), wk =   0.0004201
        k(  185) = (   0.1352941   0.0000000   0.0000000), wk =   0.0004201
        k(  186) = (   0.1360294   0.0000000   0.0000000), wk =   0.0004201
        k(  187) = (   0.1367647   0.0000000   0.0000000), wk =   0.0004201
        k(  188) = (   0.1375000   0.0000000   0.0000000), wk =   0.0004201
        k(  189) = (   0.1382353   0.0000000   0.0000000), wk =   0.0004201
        k(  190) = (   0.1389706   0.0000000   0.0000000), wk =   0.0004201
        k(  191) = (   0.1397059   0.0000000   0.0000000), wk =   0.0004201
        k(  192) = (   0.1404412   0.0000000   0.0000000), wk =   0.0004201
        k(  193) = (   0.1411765   0.0000000   0.0000000), wk =   0.0004201
        k(  194) = (   0.1419118   0.0000000   0.0000000), wk =   0.0004201
        k(  195) = (   0.1426471   0.0000000   0.0000000), wk =   0.0004201
        k(  196) = (   0.1433824   0.0000000   0.0000000), wk =   0.0004201
        k(  197) = (   0.1441176   0.0000000   0.0000000), wk =   0.0004201
        k(  198) = (   0.1448529   0.0000000   0.0000000), wk =   0.0004201
        k(  199) = (   0.1455882   0.0000000   0.0000000), wk =   0.0004201
        k(  200) = (   0.1463235   0.0000000   0.0000000), wk =   0.0004201
        k(  201) = (   0.1470588   0.0000000   0.0000000), wk =   0.0004201
        k(  202) = (   0.1477941   0.0000000   0.0000000), wk =   0.0004201
        k(  203) = (   0.1485294   0.0000000   0.0000000), wk =   0.0004201
        k(  204) = (   0.1492647   0.0000000   0.0000000), wk =   0.0004201
        k(  205) = (   0.1500000   0.0000000   0.0000000), wk =   0.0004201
        k(  206) = (   0.1507353   0.0000000   0.0000000), wk =   0.0004201
        k(  207) = (   0.1514706   0.0000000   0.0000000), wk =   0.0004201
        k(  208) = (   0.1522059   0.0000000   0.0000000), wk =   0.0004201
        k(  209) = (   0.1529412   0.0000000   0.0000000), wk =   0.0004201
        k(  210) = (   0.1536765   0.0000000   0.0000000), wk =   0.0004201
        k(  211) = (   0.1544118   0.0000000   0.0000000), wk =   0.0004201
        k(  212) = (   0.1551471   0.0000000   0.0000000), wk =   0.0004201
        k(  213) = (   0.1558824   0.0000000   0.0000000), wk =   0.0004201
        k(  214) = (   0.1566176   0.0000000   0.0000000), wk =   0.0004201
        k(  215) = (   0.1573529   0.0000000   0.0000000), wk =   0.0004201
        k(  216) = (   0.1580882   0.0000000   0.0000000), wk =   0.0004201
        k(  217) = (   0.1588235   0.0000000   0.0000000), wk =   0.0004201
        k(  218) = (   0.1595588   0.0000000   0.0000000), wk =   0.0004201
        k(  219) = (   0.1602941   0.0000000   0.0000000), wk =   0.0004201
        k(  220) = (   0.1610294   0.0000000   0.0000000), wk =   0.0004201
        k(  221) = (   0.1617647   0.0000000   0.0000000), wk =   0.0004201
        k(  222) = (   0.1625000   0.0000000   0.0000000), wk =   0.0004201
        k(  223) = (   0.1632353   0.0000000   0.0000000), wk =   0.0004201
        k(  224) = (   0.1639706   0.0000000   0.0000000), wk =   0.0004201
        k(  225) = (   0.1647059   0.0000000   0.0000000), wk =   0.0004201
        k(  226) = (   0.1654412   0.0000000   0.0000000), wk =   0.0004201
        k(  227) = (   0.1661765   0.0000000   0.0000000), wk =   0.0004201
        k(  228) = (   0.1669118   0.0000000   0.0000000), wk =   0.0004201
        k(  229) = (   0.1676471   0.0000000   0.0000000), wk =   0.0004201
        k(  230) = (   0.1683824   0.0000000   0.0000000), wk =   0.0004201
        k(  231) = (   0.1691176   0.0000000   0.0000000), wk =   0.0004201
        k(  232) = (   0.1698529   0.0000000   0.0000000), wk =   0.0004201
        k(  233) = (   0.1705882   0.0000000   0.0000000), wk =   0.0004201
        k(  234) = (   0.1713235   0.0000000   0.0000000), wk =   0.0004201
        k(  235) = (   0.1720588   0.0000000   0.0000000), wk =   0.0004201
        k(  236) = (   0.1727941   0.0000000   0.0000000), wk =   0.0004201
        k(  237) = (   0.1735294   0.0000000   0.0000000), wk =   0.0004201
        k(  238) = (   0.1742647   0.0000000   0.0000000), wk =   0.0004201
        k(  239) = (   0.1750000   0.0000000   0.0000000), wk =   0.0004201
        k(  240) = (   0.1757353   0.0000000   0.0000000), wk =   0.0004201
        k(  241) = (   0.1764706   0.0000000   0.0000000), wk =   0.0004201
        k(  242) = (   0.1772059   0.0000000   0.0000000), wk =   0.0004201
        k(  243) = (   0.1779412   0.0000000   0.0000000), wk =   0.0004201
        k(  244) = (   0.1786765   0.0000000   0.0000000), wk =   0.0004201
        k(  245) = (   0.1794118   0.0000000   0.0000000), wk =   0.0004201
        k(  246) = (   0.1801471   0.0000000   0.0000000), wk =   0.0004201
        k(  247) = (   0.1808824   0.0000000   0.0000000), wk =   0.0004201
        k(  248) = (   0.1816176   0.0000000   0.0000000), wk =   0.0004201
        k(  249) = (   0.1823529   0.0000000   0.0000000), wk =   0.0004201
        k(  250) = (   0.1830882   0.0000000   0.0000000), wk =   0.0004201
        k(  251) = (   0.1838235   0.0000000   0.0000000), wk =   0.0004201
        k(  252) = (   0.1845588   0.0000000   0.0000000), wk =   0.0004201
        k(  253) = (   0.1852941   0.0000000   0.0000000), wk =   0.0004201
        k(  254) = (   0.1860294   0.0000000   0.0000000), wk =   0.0004201
        k(  255) = (   0.1867647   0.0000000   0.0000000), wk =   0.0004201
        k(  256) = (   0.1875000   0.0000000   0.0000000), wk =   0.0004201
        k(  257) = (   0.1882353   0.0000000   0.0000000), wk =   0.0004201
        k(  258) = (   0.1889706   0.0000000   0.0000000), wk =   0.0004201
        k(  259) = (   0.1897059   0.0000000   0.0000000), wk =   0.0004201
        k(  260) = (   0.1904412   0.0000000   0.0000000), wk =   0.0004201
        k(  261) = (   0.1911765   0.0000000   0.0000000), wk =   0.0004201
        k(  262) = (   0.1919118   0.0000000   0.0000000), wk =   0.0004201
        k(  263) = (   0.1926471   0.0000000   0.0000000), wk =   0.0004201
        k(  264) = (   0.1933824   0.0000000   0.0000000), wk =   0.0004201
        k(  265) = (   0.1941176   0.0000000   0.0000000), wk =   0.0004201
        k(  266) = (   0.1948529   0.0000000   0.0000000), wk =   0.0004201
        k(  267) = (   0.1955882   0.0000000   0.0000000), wk =   0.0004201
        k(  268) = (   0.1963235   0.0000000   0.0000000), wk =   0.0004201
        k(  269) = (   0.1970588   0.0000000   0.0000000), wk =   0.0004201
        k(  270) = (   0.1977941   0.0000000   0.0000000), wk =   0.0004201
        k(  271) = (   0.1985294   0.0000000   0.0000000), wk =   0.0004201
        k(  272) = (   0.1992647   0.0000000   0.0000000), wk =   0.0004201
        k(  273) = (   0.2000000   0.0000000   0.0000000), wk =   0.0004201
        k(  274) = (   0.2007353   0.0000000   0.0000000), wk =   0.0004201
        k(  275) = (   0.2014706   0.0000000   0.0000000), wk =   0.0004201
        k(  276) = (   0.2022059   0.0000000   0.0000000), wk =   0.0004201
        k(  277) = (   0.2029412   0.0000000   0.0000000), wk =   0.0004201
        k(  278) = (   0.2036765   0.0000000   0.0000000), wk =   0.0004201
        k(  279) = (   0.2044118   0.0000000   0.0000000), wk =   0.0004201
        k(  280) = (   0.2051471   0.0000000   0.0000000), wk =   0.0004201
        k(  281) = (   0.2058824   0.0000000   0.0000000), wk =   0.0004201
        k(  282) = (   0.2066176   0.0000000   0.0000000), wk =   0.0004201
        k(  283) = (   0.2073529   0.0000000   0.0000000), wk =   0.0004201
        k(  284) = (   0.2080882   0.0000000   0.0000000), wk =   0.0004201
        k(  285) = (   0.2088235   0.0000000   0.0000000), wk =   0.0004201
        k(  286) = (   0.2095588   0.0000000   0.0000000), wk =   0.0004201
        k(  287) = (   0.2102941   0.0000000   0.0000000), wk =   0.0004201
        k(  288) = (   0.2110294   0.0000000   0.0000000), wk =   0.0004201
        k(  289) = (   0.2117647   0.0000000   0.0000000), wk =   0.0004201
        k(  290) = (   0.2125000   0.0000000   0.0000000), wk =   0.0004201
        k(  291) = (   0.2132353   0.0000000   0.0000000), wk =   0.0004201
        k(  292) = (   0.2139706   0.0000000   0.0000000), wk =   0.0004201
        k(  293) = (   0.2147059   0.0000000   0.0000000), wk =   0.0004201
        k(  294) = (   0.2154412   0.0000000   0.0000000), wk =   0.0004201
        k(  295) = (   0.2161765   0.0000000   0.0000000), wk =   0.0004201
        k(  296) = (   0.2169118   0.0000000   0.0000000), wk =   0.0004201
        k(  297) = (   0.2176471   0.0000000   0.0000000), wk =   0.0004201
        k(  298) = (   0.2183824   0.0000000   0.0000000), wk =   0.0004201
        k(  299) = (   0.2191176   0.0000000   0.0000000), wk =   0.0004201
        k(  300) = (   0.2198529   0.0000000   0.0000000), wk =   0.0004201
        k(  301) = (   0.2205882   0.0000000   0.0000000), wk =   0.0004201
        k(  302) = (   0.2213235   0.0000000   0.0000000), wk =   0.0004201
        k(  303) = (   0.2220588   0.0000000   0.0000000), wk =   0.0004201
        k(  304) = (   0.2227941   0.0000000   0.0000000), wk =   0.0004201
        k(  305) = (   0.2235294   0.0000000   0.0000000), wk =   0.0004201
        k(  306) = (   0.2242647   0.0000000   0.0000000), wk =   0.0004201
        k(  307) = (   0.2250000   0.0000000   0.0000000), wk =   0.0004201
        k(  308) = (   0.2257353   0.0000000   0.0000000), wk =   0.0004201
        k(  309) = (   0.2264706   0.0000000   0.0000000), wk =   0.0004201
        k(  310) = (   0.2272059   0.0000000   0.0000000), wk =   0.0004201
        k(  311) = (   0.2279412   0.0000000   0.0000000), wk =   0.0004201
        k(  312) = (   0.2286765   0.0000000   0.0000000), wk =   0.0004201
        k(  313) = (   0.2294118   0.0000000   0.0000000), wk =   0.0004201
        k(  314) = (   0.2301471   0.0000000   0.0000000), wk =   0.0004201
        k(  315) = (   0.2308824   0.0000000   0.0000000), wk =   0.0004201
        k(  316) = (   0.2316176   0.0000000   0.0000000), wk =   0.0004201
        k(  317) = (   0.2323529   0.0000000   0.0000000), wk =   0.0004201
        k(  318) = (   0.2330882   0.0000000   0.0000000), wk =   0.0004201
        k(  319) = (   0.2338235   0.0000000   0.0000000), wk =   0.0004201
        k(  320) = (   0.2345588   0.0000000   0.0000000), wk =   0.0004201
        k(  321) = (   0.2352941   0.0000000   0.0000000), wk =   0.0004201
        k(  322) = (   0.2360294   0.0000000   0.0000000), wk =   0.0004201
        k(  323) = (   0.2367647   0.0000000   0.0000000), wk =   0.0004201
        k(  324) = (   0.2375000   0.0000000   0.0000000), wk =   0.0004201
        k(  325) = (   0.2382353   0.0000000   0.0000000), wk =   0.0004201
        k(  326) = (   0.2389706   0.0000000   0.0000000), wk =   0.0004201
        k(  327) = (   0.2397059   0.0000000   0.0000000), wk =   0.0004201
        k(  328) = (   0.2404412   0.0000000   0.0000000), wk =   0.0004201
        k(  329) = (   0.2411765   0.0000000   0.0000000), wk =   0.0004201
        k(  330) = (   0.2419118   0.0000000   0.0000000), wk =   0.0004201
        k(  331) = (   0.2426471   0.0000000   0.0000000), wk =   0.0004201
        k(  332) = (   0.2433824   0.0000000   0.0000000), wk =   0.0004201
        k(  333) = (   0.2441176   0.0000000   0.0000000), wk =   0.0004201
        k(  334) = (   0.2448529   0.0000000   0.0000000), wk =   0.0004201
        k(  335) = (   0.2455882   0.0000000   0.0000000), wk =   0.0004201
        k(  336) = (   0.2463235   0.0000000   0.0000000), wk =   0.0004201
        k(  337) = (   0.2470588   0.0000000   0.0000000), wk =   0.0004201
        k(  338) = (   0.2477941   0.0000000   0.0000000), wk =   0.0004201
        k(  339) = (   0.2485294   0.0000000   0.0000000), wk =   0.0004201
        k(  340) = (   0.2492647   0.0000000   0.0000000), wk =   0.0004201
        k(  341) = (   0.2500000   0.0000000   0.0000000), wk =   0.0004201
        k(  342) = (   0.2507353   0.0000000   0.0000000), wk =   0.0004201
        k(  343) = (   0.2514706   0.0000000   0.0000000), wk =   0.0004201
        k(  344) = (   0.2522059   0.0000000   0.0000000), wk =   0.0004201
        k(  345) = (   0.2529412   0.0000000   0.0000000), wk =   0.0004201
        k(  346) = (   0.2536765   0.0000000   0.0000000), wk =   0.0004201
        k(  347) = (   0.2544118   0.0000000   0.0000000), wk =   0.0004201
        k(  348) = (   0.2551471   0.0000000   0.0000000), wk =   0.0004201
        k(  349) = (   0.2558824   0.0000000   0.0000000), wk =   0.0004201
        k(  350) = (   0.2566176   0.0000000   0.0000000), wk =   0.0004201
        k(  351) = (   0.2573529   0.0000000   0.0000000), wk =   0.0004201
        k(  352) = (   0.2580882   0.0000000   0.0000000), wk =   0.0004201
        k(  353) = (   0.2588235   0.0000000   0.0000000), wk =   0.0004201
        k(  354) = (   0.2595588   0.0000000   0.0000000), wk =   0.0004201
        k(  355) = (   0.2602941   0.0000000   0.0000000), wk =   0.0004201
        k(  356) = (   0.2610294   0.0000000   0.0000000), wk =   0.0004201
        k(  357) = (   0.2617647   0.0000000   0.0000000), wk =   0.0004201
        k(  358) = (   0.2625000   0.0000000   0.0000000), wk =   0.0004201
        k(  359) = (   0.2632353   0.0000000   0.0000000), wk =   0.0004201
        k(  360) = (   0.2639706   0.0000000   0.0000000), wk =   0.0004201
        k(  361) = (   0.2647059   0.0000000   0.0000000), wk =   0.0004201
        k(  362) = (   0.2654412   0.0000000   0.0000000), wk =   0.0004201
        k(  363) = (   0.2661765   0.0000000   0.0000000), wk =   0.0004201
        k(  364) = (   0.2669118   0.0000000   0.0000000), wk =   0.0004201
        k(  365) = (   0.2676471   0.0000000   0.0000000), wk =   0.0004201
        k(  366) = (   0.2683824   0.0000000   0.0000000), wk =   0.0004201
        k(  367) = (   0.2691176   0.0000000   0.0000000), wk =   0.0004201
        k(  368) = (   0.2698529   0.0000000   0.0000000), wk =   0.0004201
        k(  369) = (   0.2705882   0.0000000   0.0000000), wk =   0.0004201
        k(  370) = (   0.2713235   0.0000000   0.0000000), wk =   0.0004201
        k(  371) = (   0.2720588   0.0000000   0.0000000), wk =   0.0004201
        k(  372) = (   0.2727941   0.0000000   0.0000000), wk =   0.0004201
        k(  373) = (   0.2735294   0.0000000   0.0000000), wk =   0.0004201
        k(  374) = (   0.2742647   0.0000000   0.0000000), wk =   0.0004201
        k(  375) = (   0.2750000   0.0000000   0.0000000), wk =   0.0004201
        k(  376) = (   0.2757353   0.0000000   0.0000000), wk =   0.0004201
        k(  377) = (   0.2764706   0.0000000   0.0000000), wk =   0.0004201
        k(  378) = (   0.2772059   0.0000000   0.0000000), wk =   0.0004201
        k(  379) = (   0.2779412   0.0000000   0.0000000), wk =   0.0004201
        k(  380) = (   0.2786765   0.0000000   0.0000000), wk =   0.0004201
        k(  381) = (   0.2794118   0.0000000   0.0000000), wk =   0.0004201
        k(  382) = (   0.2801471   0.0000000   0.0000000), wk =   0.0004201
        k(  383) = (   0.2808824   0.0000000   0.0000000), wk =   0.0004201
        k(  384) = (   0.2816176   0.0000000   0.0000000), wk =   0.0004201
        k(  385) = (   0.2823529   0.0000000   0.0000000), wk =   0.0004201
        k(  386) = (   0.2830882   0.0000000   0.0000000), wk =   0.0004201
        k(  387) = (   0.2838235   0.0000000   0.0000000), wk =   0.0004201
        k(  388) = (   0.2845588   0.0000000   0.0000000), wk =   0.0004201
        k(  389) = (   0.2852941   0.0000000   0.0000000), wk =   0.0004201
        k(  390) = (   0.2860294   0.0000000   0.0000000), wk =   0.0004201
        k(  391) = (   0.2867647   0.0000000   0.0000000), wk =   0.0004201
        k(  392) = (   0.2875000   0.0000000   0.0000000), wk =   0.0004201
        k(  393) = (   0.2882353   0.0000000   0.0000000), wk =   0.0004201
        k(  394) = (   0.2889706   0.0000000   0.0000000), wk =   0.0004201
        k(  395) = (   0.2897059   0.0000000   0.0000000), wk =   0.0004201
        k(  396) = (   0.2904412   0.0000000   0.0000000), wk =   0.0004201
        k(  397) = (   0.2911765   0.0000000   0.0000000), wk =   0.0004201
        k(  398) = (   0.2919118   0.0000000   0.0000000), wk =   0.0004201
        k(  399) = (   0.2926471   0.0000000   0.0000000), wk =   0.0004201
        k(  400) = (   0.2933824   0.0000000   0.0000000), wk =   0.0004201
        k(  401) = (   0.2941176   0.0000000   0.0000000), wk =   0.0004201
        k(  402) = (   0.2948529   0.0000000   0.0000000), wk =   0.0004201
        k(  403) = (   0.2955882   0.0000000   0.0000000), wk =   0.0004201
        k(  404) = (   0.2963235   0.0000000   0.0000000), wk =   0.0004201
        k(  405) = (   0.2970588   0.0000000   0.0000000), wk =   0.0004201
        k(  406) = (   0.2977941   0.0000000   0.0000000), wk =   0.0004201
        k(  407) = (   0.2985294   0.0000000   0.0000000), wk =   0.0004201
        k(  408) = (   0.2992647   0.0000000   0.0000000), wk =   0.0004201
        k(  409) = (   0.3000000   0.0000000   0.0000000), wk =   0.0004201
        k(  410) = (   0.3007353   0.0000000   0.0000000), wk =   0.0004201
        k(  411) = (   0.3014706   0.0000000   0.0000000), wk =   0.0004201
        k(  412) = (   0.3022059   0.0000000   0.0000000), wk =   0.0004201
        k(  413) = (   0.3029412   0.0000000   0.0000000), wk =   0.0004201
        k(  414) = (   0.3036765   0.0000000   0.0000000), wk =   0.0004201
        k(  415) = (   0.3044118   0.0000000   0.0000000), wk =   0.0004201
        k(  416) = (   0.3051471   0.0000000   0.0000000), wk =   0.0004201
        k(  417) = (   0.3058824   0.0000000   0.0000000), wk =   0.0004201
        k(  418) = (   0.3066176   0.0000000   0.0000000), wk =   0.0004201
        k(  419) = (   0.3073529   0.0000000   0.0000000), wk =   0.0004201
        k(  420) = (   0.3080882   0.0000000   0.0000000), wk =   0.0004201
        k(  421) = (   0.3088235   0.0000000   0.0000000), wk =   0.0004201
        k(  422) = (   0.3095588   0.0000000   0.0000000), wk =   0.0004201
        k(  423) = (   0.3102941   0.0000000   0.0000000), wk =   0.0004201
        k(  424) = (   0.3110294   0.0000000   0.0000000), wk =   0.0004201
        k(  425) = (   0.3117647   0.0000000   0.0000000), wk =   0.0004201
        k(  426) = (   0.3125000   0.0000000   0.0000000), wk =   0.0004201
        k(  427) = (   0.3132353   0.0000000   0.0000000), wk =   0.0004201
        k(  428) = (   0.3139706   0.0000000   0.0000000), wk =   0.0004201
        k(  429) = (   0.3147059   0.0000000   0.0000000), wk =   0.0004201
        k(  430) = (   0.3154412   0.0000000   0.0000000), wk =   0.0004201
        k(  431) = (   0.3161765   0.0000000   0.0000000), wk =   0.0004201
        k(  432) = (   0.3169118   0.0000000   0.0000000), wk =   0.0004201
        k(  433) = (   0.3176471   0.0000000   0.0000000), wk =   0.0004201
        k(  434) = (   0.3183824   0.0000000   0.0000000), wk =   0.0004201
        k(  435) = (   0.3191176   0.0000000   0.0000000), wk =   0.0004201
        k(  436) = (   0.3198529   0.0000000   0.0000000), wk =   0.0004201
        k(  437) = (   0.3205882   0.0000000   0.0000000), wk =   0.0004201
        k(  438) = (   0.3213235   0.0000000   0.0000000), wk =   0.0004201
        k(  439) = (   0.3220588   0.0000000   0.0000000), wk =   0.0004201
        k(  440) = (   0.3227941   0.0000000   0.0000000), wk =   0.0004201
        k(  441) = (   0.3235294   0.0000000   0.0000000), wk =   0.0004201
        k(  442) = (   0.3242647   0.0000000   0.0000000), wk =   0.0004201
        k(  443) = (   0.3250000   0.0000000   0.0000000), wk =   0.0004201
        k(  444) = (   0.3257353   0.0000000   0.0000000), wk =   0.0004201
        k(  445) = (   0.3264706   0.0000000   0.0000000), wk =   0.0004201
        k(  446) = (   0.3272059   0.0000000   0.0000000), wk =   0.0004201
        k(  447) = (   0.3279412   0.0000000   0.0000000), wk =   0.0004201
        k(  448) = (   0.3286765   0.0000000   0.0000000), wk =   0.0004201
        k(  449) = (   0.3294118   0.0000000   0.0000000), wk =   0.0004201
        k(  450) = (   0.3301471   0.0000000   0.0000000), wk =   0.0004201
        k(  451) = (   0.3308824   0.0000000   0.0000000), wk =   0.0004201
        k(  452) = (   0.3316176   0.0000000   0.0000000), wk =   0.0004201
        k(  453) = (   0.3323529   0.0000000   0.0000000), wk =   0.0004201
        k(  454) = (   0.3330882   0.0000000   0.0000000), wk =   0.0004201
        k(  455) = (   0.3338235   0.0000000   0.0000000), wk =   0.0004201
        k(  456) = (   0.3345588   0.0000000   0.0000000), wk =   0.0004201
        k(  457) = (   0.3352941   0.0000000   0.0000000), wk =   0.0004201
        k(  458) = (   0.3360294   0.0000000   0.0000000), wk =   0.0004201
        k(  459) = (   0.3367647   0.0000000   0.0000000), wk =   0.0004201
        k(  460) = (   0.3375000   0.0000000   0.0000000), wk =   0.0004201
        k(  461) = (   0.3382353   0.0000000   0.0000000), wk =   0.0004201
        k(  462) = (   0.3389706   0.0000000   0.0000000), wk =   0.0004201
        k(  463) = (   0.3397059   0.0000000   0.0000000), wk =   0.0004201
        k(  464) = (   0.3404412   0.0000000   0.0000000), wk =   0.0004201
        k(  465) = (   0.3411765   0.0000000   0.0000000), wk =   0.0004201
        k(  466) = (   0.3419118   0.0000000   0.0000000), wk =   0.0004201
        k(  467) = (   0.3426471   0.0000000   0.0000000), wk =   0.0004201
        k(  468) = (   0.3433824   0.0000000   0.0000000), wk =   0.0004201
        k(  469) = (   0.3441176   0.0000000   0.0000000), wk =   0.0004201
        k(  470) = (   0.3448529   0.0000000   0.0000000), wk =   0.0004201
        k(  471) = (   0.3455882   0.0000000   0.0000000), wk =   0.0004201
        k(  472) = (   0.3463235   0.0000000   0.0000000), wk =   0.0004201
        k(  473) = (   0.3470588   0.0000000   0.0000000), wk =   0.0004201
        k(  474) = (   0.3477941   0.0000000   0.0000000), wk =   0.0004201
        k(  475) = (   0.3485294   0.0000000   0.0000000), wk =   0.0004201
        k(  476) = (   0.3492647   0.0000000   0.0000000), wk =   0.0004201
        k(  477) = (   0.3500000   0.0000000   0.0000000), wk =   0.0004201
        k(  478) = (   0.3507353   0.0000000   0.0000000), wk =   0.0004201
        k(  479) = (   0.3514706   0.0000000   0.0000000), wk =   0.0004201
        k(  480) = (   0.3522059   0.0000000   0.0000000), wk =   0.0004201
        k(  481) = (   0.3529412   0.0000000   0.0000000), wk =   0.0004201
        k(  482) = (   0.3536765   0.0000000   0.0000000), wk =   0.0004201
        k(  483) = (   0.3544118   0.0000000   0.0000000), wk =   0.0004201
        k(  484) = (   0.3551471   0.0000000   0.0000000), wk =   0.0004201
        k(  485) = (   0.3558824   0.0000000   0.0000000), wk =   0.0004201
        k(  486) = (   0.3566176   0.0000000   0.0000000), wk =   0.0004201
        k(  487) = (   0.3573529   0.0000000   0.0000000), wk =   0.0004201
        k(  488) = (   0.3580882   0.0000000   0.0000000), wk =   0.0004201
        k(  489) = (   0.3588235   0.0000000   0.0000000), wk =   0.0004201
        k(  490) = (   0.3595588   0.0000000   0.0000000), wk =   0.0004201
        k(  491) = (   0.3602941   0.0000000   0.0000000), wk =   0.0004201
        k(  492) = (   0.3610294   0.0000000   0.0000000), wk =   0.0004201
        k(  493) = (   0.3617647   0.0000000   0.0000000), wk =   0.0004201
        k(  494) = (   0.3625000   0.0000000   0.0000000), wk =   0.0004201
        k(  495) = (   0.3632353   0.0000000   0.0000000), wk =   0.0004201
        k(  496) = (   0.3639706   0.0000000   0.0000000), wk =   0.0004201
        k(  497) = (   0.3647059   0.0000000   0.0000000), wk =   0.0004201
        k(  498) = (   0.3654412   0.0000000   0.0000000), wk =   0.0004201
        k(  499) = (   0.3661765   0.0000000   0.0000000), wk =   0.0004201
        k(  500) = (   0.3669118   0.0000000   0.0000000), wk =   0.0004201
        k(  501) = (   0.3676471   0.0000000   0.0000000), wk =   0.0004201
        k(  502) = (   0.3683824   0.0000000   0.0000000), wk =   0.0004201
        k(  503) = (   0.3691176   0.0000000   0.0000000), wk =   0.0004201
        k(  504) = (   0.3698529   0.0000000   0.0000000), wk =   0.0004201
        k(  505) = (   0.3705882   0.0000000   0.0000000), wk =   0.0004201
        k(  506) = (   0.3713235   0.0000000   0.0000000), wk =   0.0004201
        k(  507) = (   0.3720588   0.0000000   0.0000000), wk =   0.0004201
        k(  508) = (   0.3727941   0.0000000   0.0000000), wk =   0.0004201
        k(  509) = (   0.3735294   0.0000000   0.0000000), wk =   0.0004201
        k(  510) = (   0.3742647   0.0000000   0.0000000), wk =   0.0004201
        k(  511) = (   0.3750000   0.0000000   0.0000000), wk =   0.0004201
        k(  512) = (   0.3757353   0.0000000   0.0000000), wk =   0.0004201
        k(  513) = (   0.3764706   0.0000000   0.0000000), wk =   0.0004201
        k(  514) = (   0.3772059   0.0000000   0.0000000), wk =   0.0004201
        k(  515) = (   0.3779412   0.0000000   0.0000000), wk =   0.0004201
        k(  516) = (   0.3786765   0.0000000   0.0000000), wk =   0.0004201
        k(  517) = (   0.3794118   0.0000000   0.0000000), wk =   0.0004201
        k(  518) = (   0.3801471   0.0000000   0.0000000), wk =   0.0004201
        k(  519) = (   0.3808824   0.0000000   0.0000000), wk =   0.0004201
        k(  520) = (   0.3816176   0.0000000   0.0000000), wk =   0.0004201
        k(  521) = (   0.3823529   0.0000000   0.0000000), wk =   0.0004201
        k(  522) = (   0.3830882   0.0000000   0.0000000), wk =   0.0004201
        k(  523) = (   0.3838235   0.0000000   0.0000000), wk =   0.0004201
        k(  524) = (   0.3845588   0.0000000   0.0000000), wk =   0.0004201
        k(  525) = (   0.3852941   0.0000000   0.0000000), wk =   0.0004201
        k(  526) = (   0.3860294   0.0000000   0.0000000), wk =   0.0004201
        k(  527) = (   0.3867647   0.0000000   0.0000000), wk =   0.0004201
        k(  528) = (   0.3875000   0.0000000   0.0000000), wk =   0.0004201
        k(  529) = (   0.3882353   0.0000000   0.0000000), wk =   0.0004201
        k(  530) = (   0.3889706   0.0000000   0.0000000), wk =   0.0004201
        k(  531) = (   0.3897059   0.0000000   0.0000000), wk =   0.0004201
        k(  532) = (   0.3904412   0.0000000   0.0000000), wk =   0.0004201
        k(  533) = (   0.3911765   0.0000000   0.0000000), wk =   0.0004201
        k(  534) = (   0.3919118   0.0000000   0.0000000), wk =   0.0004201
        k(  535) = (   0.3926471   0.0000000   0.0000000), wk =   0.0004201
        k(  536) = (   0.3933824   0.0000000   0.0000000), wk =   0.0004201
        k(  537) = (   0.3941176   0.0000000   0.0000000), wk =   0.0004201
        k(  538) = (   0.3948529   0.0000000   0.0000000), wk =   0.0004201
        k(  539) = (   0.3955882   0.0000000   0.0000000), wk =   0.0004201
        k(  540) = (   0.3963235   0.0000000   0.0000000), wk =   0.0004201
        k(  541) = (   0.3970588   0.0000000   0.0000000), wk =   0.0004201
        k(  542) = (   0.3977941   0.0000000   0.0000000), wk =   0.0004201
        k(  543) = (   0.3985294   0.0000000   0.0000000), wk =   0.0004201
        k(  544) = (   0.3992647   0.0000000   0.0000000), wk =   0.0004201
        k(  545) = (   0.4000000   0.0000000   0.0000000), wk =   0.0004201
        k(  546) = (   0.4007353   0.0000000   0.0000000), wk =   0.0004201
        k(  547) = (   0.4014706   0.0000000   0.0000000), wk =   0.0004201
        k(  548) = (   0.4022059   0.0000000   0.0000000), wk =   0.0004201
        k(  549) = (   0.4029412   0.0000000   0.0000000), wk =   0.0004201
        k(  550) = (   0.4036765   0.0000000   0.0000000), wk =   0.0004201
        k(  551) = (   0.4044118   0.0000000   0.0000000), wk =   0.0004201
        k(  552) = (   0.4051471   0.0000000   0.0000000), wk =   0.0004201
        k(  553) = (   0.4058824   0.0000000   0.0000000), wk =   0.0004201
        k(  554) = (   0.4066176   0.0000000   0.0000000), wk =   0.0004201
        k(  555) = (   0.4073529   0.0000000   0.0000000), wk =   0.0004201
        k(  556) = (   0.4080882   0.0000000   0.0000000), wk =   0.0004201
        k(  557) = (   0.4088235   0.0000000   0.0000000), wk =   0.0004201
        k(  558) = (   0.4095588   0.0000000   0.0000000), wk =   0.0004201
        k(  559) = (   0.4102941   0.0000000   0.0000000), wk =   0.0004201
        k(  560) = (   0.4110294   0.0000000   0.0000000), wk =   0.0004201
        k(  561) = (   0.4117647   0.0000000   0.0000000), wk =   0.0004201
        k(  562) = (   0.4125000   0.0000000   0.0000000), wk =   0.0004201
        k(  563) = (   0.4132353   0.0000000   0.0000000), wk =   0.0004201
        k(  564) = (   0.4139706   0.0000000   0.0000000), wk =   0.0004201
        k(  565) = (   0.4147059   0.0000000   0.0000000), wk =   0.0004201
        k(  566) = (   0.4154412   0.0000000   0.0000000), wk =   0.0004201
        k(  567) = (   0.4161765   0.0000000   0.0000000), wk =   0.0004201
        k(  568) = (   0.4169118   0.0000000   0.0000000), wk =   0.0004201
        k(  569) = (   0.4176471   0.0000000   0.0000000), wk =   0.0004201
        k(  570) = (   0.4183824   0.0000000   0.0000000), wk =   0.0004201
        k(  571) = (   0.4191176   0.0000000   0.0000000), wk =   0.0004201
        k(  572) = (   0.4198529   0.0000000   0.0000000), wk =   0.0004201
        k(  573) = (   0.4205882   0.0000000   0.0000000), wk =   0.0004201
        k(  574) = (   0.4213235   0.0000000   0.0000000), wk =   0.0004201
        k(  575) = (   0.4220588   0.0000000   0.0000000), wk =   0.0004201
        k(  576) = (   0.4227941   0.0000000   0.0000000), wk =   0.0004201
        k(  577) = (   0.4235294   0.0000000   0.0000000), wk =   0.0004201
        k(  578) = (   0.4242647   0.0000000   0.0000000), wk =   0.0004201
        k(  579) = (   0.4250000   0.0000000   0.0000000), wk =   0.0004201
        k(  580) = (   0.4257353   0.0000000   0.0000000), wk =   0.0004201
        k(  581) = (   0.4264706   0.0000000   0.0000000), wk =   0.0004201
        k(  582) = (   0.4272059   0.0000000   0.0000000), wk =   0.0004201
        k(  583) = (   0.4279412   0.0000000   0.0000000), wk =   0.0004201
        k(  584) = (   0.4286765   0.0000000   0.0000000), wk =   0.0004201
        k(  585) = (   0.4294118   0.0000000   0.0000000), wk =   0.0004201
        k(  586) = (   0.4301471   0.0000000   0.0000000), wk =   0.0004201
        k(  587) = (   0.4308824   0.0000000   0.0000000), wk =   0.0004201
        k(  588) = (   0.4316176   0.0000000   0.0000000), wk =   0.0004201
        k(  589) = (   0.4323529   0.0000000   0.0000000), wk =   0.0004201
        k(  590) = (   0.4330882   0.0000000   0.0000000), wk =   0.0004201
        k(  591) = (   0.4338235   0.0000000   0.0000000), wk =   0.0004201
        k(  592) = (   0.4345588   0.0000000   0.0000000), wk =   0.0004201
        k(  593) = (   0.4352941   0.0000000   0.0000000), wk =   0.0004201
        k(  594) = (   0.4360294   0.0000000   0.0000000), wk =   0.0004201
        k(  595) = (   0.4367647   0.0000000   0.0000000), wk =   0.0004201
        k(  596) = (   0.4375000   0.0000000   0.0000000), wk =   0.0004201
        k(  597) = (   0.4382353   0.0000000   0.0000000), wk =   0.0004201
        k(  598) = (   0.4389706   0.0000000   0.0000000), wk =   0.0004201
        k(  599) = (   0.4397059   0.0000000   0.0000000), wk =   0.0004201
        k(  600) = (   0.4404412   0.0000000   0.0000000), wk =   0.0004201
        k(  601) = (   0.4411765   0.0000000   0.0000000), wk =   0.0004201
        k(  602) = (   0.4419118   0.0000000   0.0000000), wk =   0.0004201
        k(  603) = (   0.4426471   0.0000000   0.0000000), wk =   0.0004201
        k(  604) = (   0.4433824   0.0000000   0.0000000), wk =   0.0004201
        k(  605) = (   0.4441176   0.0000000   0.0000000), wk =   0.0004201
        k(  606) = (   0.4448529   0.0000000   0.0000000), wk =   0.0004201
        k(  607) = (   0.4455882   0.0000000   0.0000000), wk =   0.0004201
        k(  608) = (   0.4463235   0.0000000   0.0000000), wk =   0.0004201
        k(  609) = (   0.4470588   0.0000000   0.0000000), wk =   0.0004201
        k(  610) = (   0.4477941   0.0000000   0.0000000), wk =   0.0004201
        k(  611) = (   0.4485294   0.0000000   0.0000000), wk =   0.0004201
        k(  612) = (   0.4492647   0.0000000   0.0000000), wk =   0.0004201
        k(  613) = (   0.4500000   0.0000000   0.0000000), wk =   0.0004201
        k(  614) = (   0.4507353   0.0000000   0.0000000), wk =   0.0004201
        k(  615) = (   0.4514706   0.0000000   0.0000000), wk =   0.0004201
        k(  616) = (   0.4522059   0.0000000   0.0000000), wk =   0.0004201
        k(  617) = (   0.4529412   0.0000000   0.0000000), wk =   0.0004201
        k(  618) = (   0.4536765   0.0000000   0.0000000), wk =   0.0004201
        k(  619) = (   0.4544118   0.0000000   0.0000000), wk =   0.0004201
        k(  620) = (   0.4551471   0.0000000   0.0000000), wk =   0.0004201
        k(  621) = (   0.4558824   0.0000000   0.0000000), wk =   0.0004201
        k(  622) = (   0.4566176   0.0000000   0.0000000), wk =   0.0004201
        k(  623) = (   0.4573529   0.0000000   0.0000000), wk =   0.0004201
        k(  624) = (   0.4580882   0.0000000   0.0000000), wk =   0.0004201
        k(  625) = (   0.4588235   0.0000000   0.0000000), wk =   0.0004201
        k(  626) = (   0.4595588   0.0000000   0.0000000), wk =   0.0004201
        k(  627) = (   0.4602941   0.0000000   0.0000000), wk =   0.0004201
        k(  628) = (   0.4610294   0.0000000   0.0000000), wk =   0.0004201
        k(  629) = (   0.4617647   0.0000000   0.0000000), wk =   0.0004201
        k(  630) = (   0.4625000   0.0000000   0.0000000), wk =   0.0004201
        k(  631) = (   0.4632353   0.0000000   0.0000000), wk =   0.0004201
        k(  632) = (   0.4639706   0.0000000   0.0000000), wk =   0.0004201
        k(  633) = (   0.4647059   0.0000000   0.0000000), wk =   0.0004201
        k(  634) = (   0.4654412   0.0000000   0.0000000), wk =   0.0004201
        k(  635) = (   0.4661765   0.0000000   0.0000000), wk =   0.0004201
        k(  636) = (   0.4669118   0.0000000   0.0000000), wk =   0.0004201
        k(  637) = (   0.4676471   0.0000000   0.0000000), wk =   0.0004201
        k(  638) = (   0.4683824   0.0000000   0.0000000), wk =   0.0004201
        k(  639) = (   0.4691176   0.0000000   0.0000000), wk =   0.0004201
        k(  640) = (   0.4698529   0.0000000   0.0000000), wk =   0.0004201
        k(  641) = (   0.4705882   0.0000000   0.0000000), wk =   0.0004201
        k(  642) = (   0.4713235   0.0000000   0.0000000), wk =   0.0004201
        k(  643) = (   0.4720588   0.0000000   0.0000000), wk =   0.0004201
        k(  644) = (   0.4727941   0.0000000   0.0000000), wk =   0.0004201
        k(  645) = (   0.4735294   0.0000000   0.0000000), wk =   0.0004201
        k(  646) = (   0.4742647   0.0000000   0.0000000), wk =   0.0004201
        k(  647) = (   0.4750000   0.0000000   0.0000000), wk =   0.0004201
        k(  648) = (   0.4757353   0.0000000   0.0000000), wk =   0.0004201
        k(  649) = (   0.4764706   0.0000000   0.0000000), wk =   0.0004201
        k(  650) = (   0.4772059   0.0000000   0.0000000), wk =   0.0004201
        k(  651) = (   0.4779412   0.0000000   0.0000000), wk =   0.0004201
        k(  652) = (   0.4786765   0.0000000   0.0000000), wk =   0.0004201
        k(  653) = (   0.4794118   0.0000000   0.0000000), wk =   0.0004201
        k(  654) = (   0.4801471   0.0000000   0.0000000), wk =   0.0004201
        k(  655) = (   0.4808824   0.0000000   0.0000000), wk =   0.0004201
        k(  656) = (   0.4816176   0.0000000   0.0000000), wk =   0.0004201
        k(  657) = (   0.4823529   0.0000000   0.0000000), wk =   0.0004201
        k(  658) = (   0.4830882   0.0000000   0.0000000), wk =   0.0004201
        k(  659) = (   0.4838235   0.0000000   0.0000000), wk =   0.0004201
        k(  660) = (   0.4845588   0.0000000   0.0000000), wk =   0.0004201
        k(  661) = (   0.4852941   0.0000000   0.0000000), wk =   0.0004201
        k(  662) = (   0.4860294   0.0000000   0.0000000), wk =   0.0004201
        k(  663) = (   0.4867647   0.0000000   0.0000000), wk =   0.0004201
        k(  664) = (   0.4875000   0.0000000   0.0000000), wk =   0.0004201
        k(  665) = (   0.4882353   0.0000000   0.0000000), wk =   0.0004201
        k(  666) = (   0.4889706   0.0000000   0.0000000), wk =   0.0004201
        k(  667) = (   0.4897059   0.0000000   0.0000000), wk =   0.0004201
        k(  668) = (   0.4904412   0.0000000   0.0000000), wk =   0.0004201
        k(  669) = (   0.4911765   0.0000000   0.0000000), wk =   0.0004201
        k(  670) = (   0.4919118   0.0000000   0.0000000), wk =   0.0004201
        k(  671) = (   0.4926471   0.0000000   0.0000000), wk =   0.0004201
        k(  672) = (   0.4933824   0.0000000   0.0000000), wk =   0.0004201
        k(  673) = (   0.4941176   0.0000000   0.0000000), wk =   0.0004201
        k(  674) = (   0.4948529   0.0000000   0.0000000), wk =   0.0004201
        k(  675) = (   0.4955882   0.0000000   0.0000000), wk =   0.0004201
        k(  676) = (   0.4963235   0.0000000   0.0000000), wk =   0.0004201
        k(  677) = (   0.4970588   0.0000000   0.0000000), wk =   0.0004201
        k(  678) = (   0.4977941   0.0000000   0.0000000), wk =   0.0004201
        k(  679) = (   0.4985294   0.0000000   0.0000000), wk =   0.0004201
        k(  680) = (   0.4992647   0.0000000   0.0000000), wk =   0.0004201
        k(  681) = (   0.5000000   0.0000000   0.0000000), wk =   0.0004201
        k(  682) = (   0.4992647   0.0007353   0.0007353), wk =   0.0004201
        k(  683) = (   0.4985294   0.0014706   0.0014706), wk =   0.0004201
        k(  684) = (   0.4977941   0.0022059   0.0022059), wk =   0.0004201
        k(  685) = (   0.4970588   0.0029412   0.0029412), wk =   0.0004201
        k(  686) = (   0.4963235   0.0036765   0.0036765), wk =   0.0004201
        k(  687) = (   0.4955882   0.0044118   0.0044118), wk =   0.0004201
        k(  688) = (   0.4948529   0.0051471   0.0051471), wk =   0.0004201
        k(  689) = (   0.4941176   0.0058824   0.0058824), wk =   0.0004201
        k(  690) = (   0.4933824   0.0066176   0.0066176), wk =   0.0004201
        k(  691) = (   0.4926471   0.0073529   0.0073529), wk =   0.0004201
        k(  692) = (   0.4919118   0.0080882   0.0080882), wk =   0.0004201
        k(  693) = (   0.4911765   0.0088235   0.0088235), wk =   0.0004201
        k(  694) = (   0.4904412   0.0095588   0.0095588), wk =   0.0004201
        k(  695) = (   0.4897059   0.0102941   0.0102941), wk =   0.0004201
        k(  696) = (   0.4889706   0.0110294   0.0110294), wk =   0.0004201
        k(  697) = (   0.4882353   0.0117647   0.0117647), wk =   0.0004201
        k(  698) = (   0.4875000   0.0125000   0.0125000), wk =   0.0004201
        k(  699) = (   0.4867647   0.0132353   0.0132353), wk =   0.0004201
        k(  700) = (   0.4860294   0.0139706   0.0139706), wk =   0.0004201
        k(  701) = (   0.4852941   0.0147059   0.0147059), wk =   0.0004201
        k(  702) = (   0.4845588   0.0154412   0.0154412), wk =   0.0004201
        k(  703) = (   0.4838235   0.0161765   0.0161765), wk =   0.0004201
        k(  704) = (   0.4830882   0.0169118   0.0169118), wk =   0.0004201
        k(  705) = (   0.4823529   0.0176471   0.0176471), wk =   0.0004201
        k(  706) = (   0.4816176   0.0183824   0.0183824), wk =   0.0004201
        k(  707) = (   0.4808824   0.0191176   0.0191176), wk =   0.0004201
        k(  708) = (   0.4801471   0.0198529   0.0198529), wk =   0.0004201
        k(  709) = (   0.4794118   0.0205882   0.0205882), wk =   0.0004201
        k(  710) = (   0.4786765   0.0213235   0.0213235), wk =   0.0004201
        k(  711) = (   0.4779412   0.0220588   0.0220588), wk =   0.0004201
        k(  712) = (   0.4772059   0.0227941   0.0227941), wk =   0.0004201
[...]

   -41.5873 -18.3289 -18.3289 -18.3027  12.5277  12.5624  12.5624  12.6800

          k = 0.5000-0.4088-0.5000 (  1056 PWs)   bands (ev):

   -41.5872 -18.3289 -18.3289 -18.3031  12.5294  12.5631  12.5631  12.6844

          k = 0.5000-0.4096-0.5000 (  1056 PWs)   bands (ev):

   -41.5872 -18.3288 -18.3288 -18.3035  12.5311  12.5638  12.5638  12.6887

          k = 0.5000-0.4103-0.5000 (  1056 PWs)   bands (ev):

   -41.5871 -18.3288 -18.3288 -18.3038  12.5328  12.5645  12.5645  12.6930

          k = 0.5000-0.4110-0.5000 (  1056 PWs)   bands (ev):

   -41.5871 -18.3288 -18.3288 -18.3042  12.5345  12.5652  12.5652  12.6973

          k = 0.5000-0.4118-0.5000 (  1056 PWs)   bands (ev):

   -41.5871 -18.3288 -18.3287 -18.3046  12.5362  12.5660  12.5660  12.7015

          k = 0.5000-0.4125-0.5000 (  1056 PWs)   bands (ev):

   -41.5870 -18.3287 -18.3287 -18.3049  12.5379  12.5667  12.5667  12.7057

          k = 0.5000-0.4132-0.5000 (  1064 PWs)   bands (ev):

   -41.5870 -18.3287 -18.3287 -18.3053  12.5395  12.5674  12.5674  12.7100

          k = 0.5000-0.4140-0.5000 (  1064 PWs)   bands (ev):

   -41.5870 -18.3287 -18.3287 -18.3056  12.5412  12.5682  12.5682  12.7141

          k = 0.5000-0.4147-0.5000 (  1064 PWs)   bands (ev):

   -41.5869 -18.3286 -18.3286 -18.3060  12.5428  12.5689  12.5689  12.7183

          k = 0.5000-0.4154-0.5000 (  1064 PWs)   bands (ev):

   -41.5869 -18.3286 -18.3286 -18.3063  12.5444  12.5696  12.5696  12.7224

          k = 0.5000-0.4162-0.5000 (  1064 PWs)   bands (ev):

   -41.5868 -18.3286 -18.3286 -18.3067  12.5460  12.5704  12.5704  12.7266

          k = 0.5000-0.4169-0.5000 (  1064 PWs)   bands (ev):

   -41.5868 -18.3285 -18.3285 -18.3070  12.5476  12.5711  12.5711  12.7307

          k = 0.5000-0.4176-0.5000 (  1064 PWs)   bands (ev):

   -41.5868 -18.3285 -18.3285 -18.3074  12.5492  12.5719  12.5719  12.7347

          k = 0.5000-0.4184-0.5000 (  1064 PWs)   bands (ev):

   -41.5867 -18.3285 -18.3285 -18.3077  12.5507  12.5726  12.5726  12.7388

          k = 0.5000-0.4191-0.5000 (  1064 PWs)   bands (ev):

   -41.5867 -18.3284 -18.3284 -18.3080  12.5523  12.5734  12.5734  12.7428

          k = 0.5000-0.4199-0.5000 (  1064 PWs)   bands (ev):

   -41.5866 -18.3284 -18.3284 -18.3084  12.5538  12.5742  12.5742  12.7468

          k = 0.5000-0.4206-0.5000 (  1064 PWs)   bands (ev):

   -41.5866 -18.3284 -18.3284 -18.3087  12.5553  12.5749  12.5749  12.7508

          k = 0.5000-0.4213-0.5000 (  1064 PWs)   bands (ev):

   -41.5866 -18.3284 -18.3284 -18.3090  12.5568  12.5757  12.5757  12.7548

          k = 0.5000-0.4221-0.5000 (  1064 PWs)   bands (ev):

   -41.5865 -18.3283 -18.3283 -18.3094  12.5583  12.5764  12.5764  12.7587

          k = 0.5000-0.4228-0.5000 (  1064 PWs)   bands (ev):

   -41.5865 -18.3283 -18.3283 -18.3097  12.5598  12.5772  12.5772  12.7626

          k = 0.5000-0.4235-0.5000 (  1064 PWs)   bands (ev):

   -41.5865 -18.3283 -18.3283 -18.3100  12.5613  12.5780  12.5780  12.7665

          k = 0.5000-0.4243-0.5000 (  1064 PWs)   bands (ev):

   -41.5864 -18.3282 -18.3282 -18.3103  12.5627  12.5787  12.5788  12.7704

          k = 0.5000-0.4250-0.5000 (  1064 PWs)   bands (ev):

   -41.5864 -18.3282 -18.3282 -18.3106  12.5642  12.5795  12.5795  12.7742

          k = 0.5000-0.4257-0.5000 (  1064 PWs)   bands (ev):

   -41.5863 -18.3282 -18.3282 -18.3109  12.5656  12.5803  12.5803  12.7780

          k = 0.5000-0.4265-0.5000 (  1064 PWs)   bands (ev):

   -41.5863 -18.3282 -18.3282 -18.3112  12.5670  12.5811  12.5811  12.7818

          k = 0.5000-0.4272-0.5000 (  1064 PWs)   bands (ev):

   -41.5863 -18.3281 -18.3281 -18.3115  12.5684  12.5819  12.5819  12.7855

          k = 0.5000-0.4279-0.5000 (  1064 PWs)   bands (ev):

   -41.5862 -18.3281 -18.3281 -18.3118  12.5698  12.5826  12.5826  12.7893

          k = 0.5000-0.4287-0.5000 (  1064 PWs)   bands (ev):

   -41.5862 -18.3281 -18.3281 -18.3121  12.5712  12.5834  12.5834  12.7930

          k = 0.5000-0.4294-0.5000 (  1064 PWs)   bands (ev):

   -41.5862 -18.3281 -18.3281 -18.3124  12.5725  12.5842  12.5842  12.7966

          k = 0.5000-0.4301-0.5000 (  1064 PWs)   bands (ev):

   -41.5861 -18.3280 -18.3280 -18.3127  12.5739  12.5850  12.5850  12.8003

          k = 0.5000-0.4309-0.5000 (  1064 PWs)   bands (ev):

   -41.5861 -18.3280 -18.3280 -18.3130  12.5752  12.5858  12.5858  12.8039

          k = 0.5000-0.4316-0.5000 (  1064 PWs)   bands (ev):

   -41.5861 -18.3280 -18.3280 -18.3133  12.5765  12.5866  12.5866  12.8075

          k = 0.5000-0.4324-0.5000 (  1064 PWs)   bands (ev):

   -41.5860 -18.3280 -18.3280 -18.3136  12.5778  12.5873  12.5873  12.8111

          k = 0.5000-0.4331-0.5000 (  1064 PWs)   bands (ev):

   -41.5860 -18.3279 -18.3279 -18.3139  12.5791  12.5881  12.5881  12.8146

          k = 0.5000-0.4338-0.5000 (  1064 PWs)   bands (ev):

   -41.5860 -18.3279 -18.3279 -18.3142  12.5804  12.5889  12.5889  12.8181

          k = 0.5000-0.4346-0.5000 (  1064 PWs)   bands (ev):

   -41.5860 -18.3279 -18.3279 -18.3144  12.5817  12.5897  12.5897  12.8216

          k = 0.5000-0.4353-0.5000 (  1064 PWs)   bands (ev):

   -41.5859 -18.3279 -18.3279 -18.3147  12.5829  12.5905  12.5905  12.8250

          k = 0.5000-0.4360-0.5000 (  1064 PWs)   bands (ev):

   -41.5859 -18.3278 -18.3278 -18.3150  12.5842  12.5913  12.5913  12.8285

          k = 0.5000-0.4368-0.5000 (  1064 PWs)   bands (ev):

   -41.5859 -18.3278 -18.3278 -18.3152  12.5854  12.5921  12.5921  12.8318

          k = 0.5000-0.4375-0.5000 (  1064 PWs)   bands (ev):

   -41.5858 -18.3278 -18.3278 -18.3155  12.5866  12.5929  12.5929  12.8352

          k = 0.5000-0.4382-0.5000 (  1064 PWs)   bands (ev):

   -41.5858 -18.3278 -18.3278 -18.3158  12.5878  12.5937  12.5937  12.8386

          k = 0.5000-0.4390-0.5000 (  1064 PWs)   bands (ev):

   -41.5858 -18.3277 -18.3277 -18.3160  12.5890  12.5945  12.5945  12.8418

          k = 0.5000-0.4397-0.5000 (  1064 PWs)   bands (ev):

   -41.5857 -18.3277 -18.3277 -18.3163  12.5901  12.5952  12.5953  12.8451

          k = 0.5000-0.4404-0.5000 (  1064 PWs)   bands (ev):

   -41.5857 -18.3277 -18.3277 -18.3165  12.5913  12.5960  12.5960  12.8484

          k = 0.5000-0.4412-0.5000 (  1064 PWs)   bands (ev):

   -41.5857 -18.3277 -18.3277 -18.3168  12.5924  12.5968  12.5968  12.8516

          k = 0.5000-0.4419-0.5000 (  1064 PWs)   bands (ev):

   -41.5857 -18.3276 -18.3276 -18.3170  12.5936  12.5976  12.5976  12.8547

          k = 0.5000-0.4426-0.5000 (  1064 PWs)   bands (ev):

   -41.5856 -18.3276 -18.3276 -18.3173  12.5947  12.5984  12.5984  12.8579

          k = 0.5000-0.4434-0.5000 (  1064 PWs)   bands (ev):

   -41.5856 -18.3276 -18.3276 -18.3175  12.5958  12.5992  12.5992  12.8610

          k = 0.5000-0.4441-0.5000 (  1064 PWs)   bands (ev):

   -41.5856 -18.3276 -18.3276 -18.3177  12.5969  12.6000  12.6000  12.8641

          k = 0.5000-0.4449-0.5000 (  1064 PWs)   bands (ev):

   -41.5855 -18.3276 -18.3276 -18.3180  12.5979  12.6007  12.6007  12.8671

          k = 0.5000-0.4456-0.5000 (  1064 PWs)   bands (ev):

   -41.5855 -18.3275 -18.3275 -18.3182  12.5990  12.6015  12.6015  12.8701

          k = 0.5000-0.4463-0.5000 (  1064 PWs)   bands (ev):

   -41.5855 -18.3275 -18.3275 -18.3184  12.6000  12.6023  12.6023  12.8732

          k = 0.5000-0.4471-0.5000 (  1064 PWs)   bands (ev):

   -41.5855 -18.3275 -18.3275 -18.3187  12.6011  12.6031  12.6031  12.8761

          k = 0.5000-0.4478-0.5000 (  1064 PWs)   bands (ev):

   -41.5854 -18.3275 -18.3275 -18.3189  12.6021  12.6038  12.6038  12.8790

          k = 0.5000-0.4485-0.5000 (  1064 PWs)   bands (ev):

   -41.5854 -18.3275 -18.3275 -18.3191  12.6031  12.6046  12.6046  12.8819

          k = 0.5000-0.4493-0.5000 (  1064 PWs)   bands (ev):

   -41.5854 -18.3274 -18.3274 -18.3193  12.6041  12.6054  12.6054  12.8847

          k = 0.5000-0.4500-0.5000 (  1064 PWs)   bands (ev):

   -41.5854 -18.3274 -18.3274 -18.3195  12.6051  12.6062  12.6062  12.8875

          k = 0.5000-0.4507-0.5000 (  1064 PWs)   bands (ev):

   -41.5853 -18.3274 -18.3274 -18.3197  12.6060  12.6069  12.6069  12.8903

          k = 0.5000-0.4515-0.5000 (  1064 PWs)   bands (ev):

   -41.5853 -18.3274 -18.3274 -18.3199  12.6070  12.6077  12.6077  12.8931

          k = 0.5000-0.4522-0.5000 (  1064 PWs)   bands (ev):

   -41.5853 -18.3274 -18.3274 -18.3202  12.6079  12.6084  12.6084  12.8958

          k = 0.5000-0.4529-0.5000 (  1064 PWs)   bands (ev):

   -41.5853 -18.3274 -18.3274 -18.3204  12.6088  12.6092  12.6092  12.8985

          k = 0.5000-0.4537-0.5000 (  1064 PWs)   bands (ev):

   -41.5853 -18.3273 -18.3273 -18.3205  12.6097  12.6099  12.6099  12.9011

          k = 0.5000-0.4544-0.5000 (  1064 PWs)   bands (ev):

   -41.5852 -18.3273 -18.3273 -18.3207  12.6106  12.6107  12.6107  12.9037

          k = 0.5000-0.4551-0.5000 (  1064 PWs)   bands (ev):

   -41.5852 -18.3273 -18.3273 -18.3209  12.6114  12.6114  12.6115  12.9063

          k = 0.5000-0.4559-0.5000 (  1064 PWs)   bands (ev):

   -41.5852 -18.3273 -18.3273 -18.3211  12.6121  12.6121  12.6124  12.9088

          k = 0.5000-0.4566-0.5000 (  1064 PWs)   bands (ev):

   -41.5852 -18.3273 -18.3273 -18.3213  12.6129  12.6129  12.6132  12.9113

          k = 0.5000-0.4574-0.5000 (  1064 PWs)   bands (ev):

   -41.5851 -18.3272 -18.3272 -18.3215  12.6136  12.6136  12.6140  12.9138

          k = 0.5000-0.4581-0.5000 (  1064 PWs)   bands (ev):

   -41.5851 -18.3272 -18.3272 -18.3217  12.6143  12.6143  12.6149  12.9162

          k = 0.5000-0.4588-0.5000 (  1064 PWs)   bands (ev):

   -41.5851 -18.3272 -18.3272 -18.3218  12.6150  12.6150  12.6157  12.9186

          k = 0.5000-0.4596-0.5000 (  1064 PWs)   bands (ev):

   -41.5851 -18.3272 -18.3272 -18.3220  12.6157  12.6157  12.6165  12.9209

          k = 0.5000-0.4603-0.5000 (  1064 PWs)   bands (ev):

   -41.5851 -18.3272 -18.3272 -18.3222  12.6164  12.6164  12.6172  12.9232

          k = 0.5000-0.4610-0.5000 (  1064 PWs)   bands (ev):

   -41.5850 -18.3272 -18.3272 -18.3224  12.6171  12.6171  12.6180  12.9256

          k = 0.5000-0.4618-0.5000 (  1064 PWs)   bands (ev):

   -41.5850 -18.3272 -18.3272 -18.3225  12.6178  12.6178  12.6188  12.9278

          k = 0.5000-0.4625-0.5000 (  1064 PWs)   bands (ev):

   -41.5850 -18.3271 -18.3271 -18.3227  12.6185  12.6185  12.6195  12.9300

          k = 0.5000-0.4632-0.5000 (  1064 PWs)   bands (ev):

   -41.5850 -18.3271 -18.3271 -18.3228  12.6192  12.6192  12.6202  12.9321

          k = 0.5000-0.4640-0.5000 (  1064 PWs)   bands (ev):

   -41.5850 -18.3271 -18.3271 -18.3230  12.6198  12.6198  12.6209  12.9343

          k = 0.5000-0.4647-0.5000 (  1064 PWs)   bands (ev):

   -41.5850 -18.3271 -18.3271 -18.3232  12.6205  12.6205  12.6216  12.9364

          k = 0.5000-0.4654-0.5000 (  1064 PWs)   bands (ev):

   -41.5849 -18.3271 -18.3271 -18.3233  12.6211  12.6212  12.6223  12.9384

          k = 0.5000-0.4662-0.5000 (  1064 PWs)   bands (ev):

   -41.5849 -18.3271 -18.3271 -18.3234  12.6218  12.6218  12.6230  12.9404

          k = 0.5000-0.4669-0.5000 (  1064 PWs)   bands (ev):

   -41.5849 -18.3271 -18.3271 -18.3236  12.6224  12.6224  12.6236  12.9423

          k = 0.5000-0.4676-0.5000 (  1064 PWs)   bands (ev):

   -41.5849 -18.3271 -18.3271 -18.3237  12.6231  12.6231  12.6243  12.9443

          k = 0.5000-0.4684-0.5000 (  1064 PWs)   bands (ev):

   -41.5849 -18.3270 -18.3270 -18.3239  12.6237  12.6237  12.6249  12.9461

          k = 0.5000-0.4691-0.5000 (  1064 PWs)   bands (ev):

   -41.5849 -18.3270 -18.3270 -18.3240  12.6243  12.6243  12.6255  12.9480

          k = 0.5000-0.4699-0.5000 (  1064 PWs)   bands (ev):

   -41.5848 -18.3270 -18.3270 -18.3241  12.6249  12.6249  12.6261  12.9498

          k = 0.5000-0.4706-0.5000 (  1064 PWs)   bands (ev):

   -41.5848 -18.3270 -18.3270 -18.3243  12.6255  12.6255  12.6267  12.9515

          k = 0.5000-0.4713-0.5000 (  1064 PWs)   bands (ev):

   -41.5848 -18.3270 -18.3270 -18.3244  12.6260  12.6260  12.6272  12.9533

          k = 0.5000-0.4721-0.5000 (  1064 PWs)   bands (ev):

   -41.5848 -18.3270 -18.3270 -18.3245  12.6266  12.6266  12.6278  12.9549

          k = 0.5000-0.4728-0.5000 (  1064 PWs)   bands (ev):

   -41.5848 -18.3270 -18.3270 -18.3246  12.6272  12.6272  12.6283  12.9566

          k = 0.5000-0.4735-0.5000 (  1064 PWs)   bands (ev):

   -41.5848 -18.3270 -18.3270 -18.3247  12.6277  12.6277  12.6289  12.9583

          k = 0.5000-0.4743-0.5000 (  1064 PWs)   bands (ev):

   -41.5848 -18.3270 -18.3270 -18.3248  12.6283  12.6283  12.6294  12.9599

          k = 0.5000-0.4750-0.5000 (  1064 PWs)   bands (ev):

   -41.5847 -18.3269 -18.3269 -18.3250  12.6288  12.6288  12.6299  12.9613

          k = 0.5000-0.4757-0.5000 (  1064 PWs)   bands (ev):

   -41.5847 -18.3269 -18.3269 -18.3251  12.6293  12.6293  12.6303  12.9627

          k = 0.5000-0.4765-0.5000 (  1064 PWs)   bands (ev):

   -41.5847 -18.3269 -18.3269 -18.3252  12.6298  12.6298  12.6308  12.9642

          k = 0.5000-0.4772-0.5000 (  1064 PWs)   bands (ev):

   -41.5847 -18.3269 -18.3269 -18.3253  12.6303  12.6303  12.6313  12.9656

          k = 0.5000-0.4779-0.5000 (  1064 PWs)   bands (ev):

   -41.5847 -18.3269 -18.3269 -18.3254  12.6308  12.6308  12.6317  12.9670

          k = 0.5000-0.4787-0.5000 (  1064 PWs)   bands (ev):

   -41.5847 -18.3269 -18.3269 -18.3255  12.6312  12.6312  12.6321  12.9682

          k = 0.5000-0.4794-0.5000 (  1064 PWs)   bands (ev):

   -41.5847 -18.3269 -18.3269 -18.3255  12.6317  12.6317  12.6325  12.9702

          k = 0.5000-0.4801-0.5000 (  1064 PWs)   bands (ev):

   -41.5847 -18.3269 -18.3269 -18.3256  12.6321  12.6321  12.6329  12.9706

          k = 0.5000-0.4809-0.5000 (  1064 PWs)   bands (ev):

   -41.5847 -18.3269 -18.3269 -18.3257  12.6325  12.6325  12.6333  12.9720

          k = 0.5000-0.4816-0.5000 (  1064 PWs)   bands (ev):

   -41.5847 -18.3269 -18.3269 -18.3258  12.6329  12.6329  12.6337  12.9733

          k = 0.5000-0.4824-0.5000 (  1064 PWs)   bands (ev):

   -41.5846 -18.3269 -18.3269 -18.3259  12.6333  12.6333  12.6340  12.9741

          k = 0.5000-0.4831-0.5000 (  1064 PWs)   bands (ev):

   -41.5846 -18.3269 -18.3269 -18.3259  12.6337  12.6337  12.6344  12.9751

          k = 0.5000-0.4838-0.5000 (  1064 PWs)   bands (ev):

   -41.5846 -18.3268 -18.3268 -18.3260  12.6341  12.6341  12.6347  12.9895

          k = 0.5000-0.4846-0.5000 (  1064 PWs)   bands (ev):

   -41.5846 -18.3268 -18.3268 -18.3261  12.6344  12.6344  12.6350  12.9782

          k = 0.5000-0.4853-0.5000 (  1064 PWs)   bands (ev):

   -41.5846 -18.3268 -18.3268 -18.3261  12.6348  12.6348  12.6353  12.9817

          k = 0.5000-0.4860-0.5000 (  1064 PWs)   bands (ev):

   -41.5846 -18.3268 -18.3268 -18.3262  12.6351  12.6351  12.6356  12.9818

          k = 0.5000-0.4868-0.5000 (  1064 PWs)   bands (ev):

   -41.5846 -18.3268 -18.3268 -18.3263  12.6354  12.6354  12.6358  12.9819

          k = 0.5000-0.4875-0.5000 (  1064 PWs)   bands (ev):

   -41.5846 -18.3268 -18.3268 -18.3263  12.6357  12.6357  12.6361  12.9834

          k = 0.5000-0.4882-0.5000 (  1064 PWs)   bands (ev):

   -41.5846 -18.3268 -18.3268 -18.3264  12.6360  12.6360  12.6363  12.9852

          k = 0.5000-0.4890-0.5000 (  1064 PWs)   bands (ev):

   -41.5846 -18.3268 -18.3268 -18.3264  12.6362  12.6362  12.6365  12.9821

          k = 0.5000-0.4897-0.5000 (  1064 PWs)   bands (ev):

   -41.5846 -18.3268 -18.3268 -18.3265  12.6365  12.6365  12.6368  12.9840

          k = 0.5000-0.4904-0.5000 (  1064 PWs)   bands (ev):

   -41.5846 -18.3268 -18.3268 -18.3265  12.6367  12.6367  12.6369  12.9839

          k = 0.5000-0.4912-0.5000 (  1064 PWs)   bands (ev):

   -41.5846 -18.3268 -18.3268 -18.3266  12.6369  12.6369  12.6371  12.9841

          k = 0.5000-0.4919-0.5000 (  1064 PWs)   bands (ev):

   -41.5846 -18.3268 -18.3268 -18.3266  12.6371  12.6371  12.6373  12.9856

          k = 0.5000-0.4926-0.5000 (  1064 PWs)   bands (ev):

   -41.5846 -18.3268 -18.3268 -18.3266  12.6373  12.6373  12.6374  12.9872

          k = 0.5000-0.4934-0.5000 (  1064 PWs)   bands (ev):

   -41.5846 -18.3268 -18.3268 -18.3267  12.6375  12.6375  12.6376  12.9875

          k = 0.5000-0.4941-0.5000 (  1064 PWs)   bands (ev):

   -41.5846 -18.3268 -18.3268 -18.3267  12.6376  12.6376  12.6377  12.9872

          k = 0.5000-0.4949-0.5000 (  1064 PWs)   bands (ev):

   -41.5846 -18.3268 -18.3268 -18.3267  12.6377  12.6377  12.6378  12.9869

          k = 0.5000-0.4956-0.5000 (  1064 PWs)   bands (ev):

   -41.5845 -18.3268 -18.3268 -18.3267  12.6379  12.6379  12.6379  12.9874

          k = 0.5000-0.4963-0.5000 (  1064 PWs)   bands (ev):

   -41.5845 -18.3268 -18.3268 -18.3267  12.6379  12.6379  12.6380  12.9870

          k = 0.5000-0.4971-0.5000 (  1064 PWs)   bands (ev):

   -41.5845 -18.3268 -18.3268 -18.3268  12.6380  12.6380  12.6380  12.9868

          k = 0.5000-0.4978-0.5000 (  1064 PWs)   bands (ev):

   -41.5845 -18.3268 -18.3268 -18.3268  12.6381  12.6381  12.6381  12.9870

          k = 0.5000-0.4985-0.5000 (  1064 PWs)   bands (ev):

   -41.5845 -18.3268 -18.3268 -18.3268  12.6381  12.6381  12.6381  12.9868

          k = 0.5000-0.4993-0.5000 (  1064 PWs)   bands (ev):

   -41.5845 -18.3268 -18.3268 -18.3268  12.6382  12.6382  12.6382  12.9869

          k = 0.5000-0.5000-0.5000 (  1064 PWs)   bands (ev):

   -41.5845 -18.3268 -18.3268 -18.3268  12.6382  12.6382  12.6382  12.9869

     Writing output data file FeTi.save/

     init_run     :      1.52s CPU      1.36s WALL (       1 calls)
     electrons    :   2512.77s CPU   1277.75s WALL (       1 calls)

     Called by init_run:
     wfcinit      :      0.00s CPU      0.00s WALL (       1 calls)
     wfcinit:atom :      3.31s CPU      1.68s WALL (    4761 calls)
     wfcinit:wfcr :    116.06s CPU     58.44s WALL (    4761 calls)
     potinit      :      0.05s CPU      0.07s WALL (       1 calls)
     hinit0       :      1.08s CPU      1.05s WALL (       1 calls)

     Called by electrons:
     c_bands      :   2512.72s CPU   1277.70s WALL (       1 calls)
     v_of_rho     :      0.02s CPU      0.01s WALL (       1 calls)
     v_h          :      0.00s CPU      0.00s WALL (       1 calls)
     v_xc         :      0.01s CPU      0.01s WALL (       1 calls)
     newd         :      0.35s CPU      0.18s WALL (       1 calls)

     Called by c_bands:
     init_us_2    :      4.31s CPU      2.33s WALL (    4761 calls)
     ccgdiagg     :   2256.01s CPU   1147.91s WALL (   14884 calls)
     wfcrot       :    233.05s CPU    117.43s WALL (   14884 calls)

     Called by sum_band:

     Called by *cgdiagg:
     h_psi        :   1762.85s CPU    895.93s WALL ( 1278962 calls)
     s_psi        :    353.00s CPU    179.57s WALL ( 2543040 calls)
     cdiaghg      :      1.56s CPU      0.78s WALL (   14884 calls)

     Called by h_psi:
     h_psi:pot    :   1749.22s CPU    888.88s WALL ( 1278962 calls)
     h_psi:calbec :    192.29s CPU     97.00s WALL ( 1278962 calls)
     vloc_psi     :   1355.39s CPU    690.20s WALL ( 1278962 calls)
     add_vuspsi   :    189.17s CPU     95.65s WALL ( 1278962 calls)
     h_1psi       :   1763.01s CPU    896.64s WALL ( 1264078 calls)

     General routines
     calbec       :    348.72s CPU    176.73s WALL ( 2543040 calls)
     fft          :      0.02s CPU      0.01s WALL (       7 calls)
     ffts         :      0.00s CPU      0.00s WALL (       1 calls)
     fftw         :   1263.81s CPU    643.48s WALL ( 2842476 calls)
     interpolate  :      0.00s CPU      0.00s WALL (       1 calls)
     davcio       :      1.32s CPU      0.95s WALL (    9522 calls)

     Parallel routines

     PWSCF        : 42m24.05s CPU    21m49.50s WALL


   This run was terminated on:   2:50:38  26Jun2019            

=------------------------------------------------------------------------------=
   JOB DONE.
=------------------------------------------------------------------------------=
