
     Program BANDS v.6.3 starts on 21Jun2019 at 21: 9:41 

     This program is part of the open-source Quantum ESPRESSO suite
     for quantum simulation of materials; please cite
         "P. Giannozzi et al., J. Phys.:Condens. Matter 21 395502 (2009);
         "P. Giannozzi et al., J. Phys.:Condens. Matter 29 465901 (2017);
          URL http://www.quantum-espresso.org", 
     in publications or presentations arising from this work. More details at
     http://www.quantum-espresso.org/quote

     Parallel version (MPI & OpenMP), running on       2 processor cores
     Number of MPI processes:                 1
     Threads/MPI process:                     2

     MPI processes distributed on     1 nodes

     Reading data from directory:
     ./1.save/

     IMPORTANT: XC functional enforced from input :
     Exchange-correlation      = PZ ( 1  1  0  0 0 0)
     Any further DFT definition will be discarded
     Please, verify this is what you really want

               file Fe.pz-nd-rrkjus.UPF: wavefunction(s)  4S renormalized

     G-vector sticks info
     --------------------
     sticks:   dense  smooth     PW     G-vecs:    dense   smooth      PW
     Sum         497     497    161                 8385     8385    1503


     Check: negative/imaginary core charge=   -0.000056    0.000000
     high-symmetry point:  0.0312 0.0312 0.0312   x coordinate   0.0000
     high-symmetry point:  0.0312 0.0312 0.4688   x coordinate   0.4375
     high-symmetry point:  0.0312 0.0938 0.0938   x coordinate   0.4375
     high-symmetry point:  0.0312 0.0938 0.4688   x coordinate   0.8125
     high-symmetry point:  0.0312 0.1562 0.1562   x coordinate   0.8125
     high-symmetry point:  0.0312 0.1562 0.4688   x coordinate   1.1250
     high-symmetry point:  0.0312 0.2188 0.2188   x coordinate   1.3827
     high-symmetry point:  0.0312 0.2188 0.4688   x coordinate   1.6327
     high-symmetry point:  0.0312 0.2812 0.2812   x coordinate   1.8303
     high-symmetry point:  0.0312 0.2812 0.4688   x coordinate   2.0178
     high-symmetry point:  0.0312 0.3438 0.3438   x coordinate   2.1576
     high-symmetry point:  0.0312 0.3438 0.4688   x coordinate   2.2826
     high-symmetry point:  0.0312 0.4062 0.4062   x coordinate   2.3710
     high-symmetry point:  0.0312 0.4062 0.4688   x coordinate   2.4335
     high-symmetry point:  0.0312 0.4688 0.4688   x coordinate   2.4960
     high-symmetry point:  0.0938 0.0938 0.0938   x coordinate   2.4960
     high-symmetry point:  0.0938 0.0938 0.4688   x coordinate   2.8710
     high-symmetry point:  0.0938 0.1562 0.1562   x coordinate   2.8710
     high-symmetry point:  0.0938 0.1562 0.4688   x coordinate   3.1835
     high-symmetry point:  0.0938 0.2188 0.2188   x coordinate   3.4412
     high-symmetry point:  0.0938 0.2188 0.4688   x coordinate   3.6912
     high-symmetry point:  0.0938 0.2812 0.2812   x coordinate   3.8888
     high-symmetry point:  0.0938 0.2812 0.4688   x coordinate   4.0763
     high-symmetry point:  0.0938 0.3438 0.3438   x coordinate   4.2161
     high-symmetry point:  0.0938 0.3438 0.4688   x coordinate   4.3411
     high-symmetry point:  0.0938 0.4062 0.4062   x coordinate   4.4295
     high-symmetry point:  0.0938 0.4062 0.4688   x coordinate   4.4920
     high-symmetry point:  0.0938 0.4688 0.4688   x coordinate   4.5545
     high-symmetry point:  0.1562 0.1562 0.1562   x coordinate   4.5545
     high-symmetry point:  0.1562 0.1562 0.4688   x coordinate   4.8670
     high-symmetry point:  0.1562 0.2188 0.2188   x coordinate   5.1247
     high-symmetry point:  0.1562 0.2188 0.4688   x coordinate   5.3747
     high-symmetry point:  0.1562 0.2812 0.2812   x coordinate   5.5723
     high-symmetry point:  0.1562 0.2812 0.4688   x coordinate   5.7598
     high-symmetry point:  0.1562 0.3438 0.3438   x coordinate   5.8995
     high-symmetry point:  0.1562 0.3438 0.4688   x coordinate   6.0245
     high-symmetry point:  0.1562 0.4062 0.4062   x coordinate   6.1129
     high-symmetry point:  0.1562 0.4062 0.4688   x coordinate   6.1754
     high-symmetry point:  0.1562 0.4688 0.4688   x coordinate   6.2379
     high-symmetry point:  0.2188 0.2188 0.2188   x coordinate   6.2379
     high-symmetry point:  0.2188 0.2188 0.4688   x coordinate   6.4879
     high-symmetry point:  0.2188 0.2812 0.2812   x coordinate   6.6856
     high-symmetry point:  0.2188 0.2812 0.4688   x coordinate   6.8731
     high-symmetry point:  0.2188 0.3438 0.3438   x coordinate   7.0128
     high-symmetry point:  0.2188 0.3438 0.4688   x coordinate   7.1378
     high-symmetry point:  0.2188 0.4062 0.4062   x coordinate   7.2262
     high-symmetry point:  0.2188 0.4062 0.4688   x coordinate   7.2887
     high-symmetry point:  0.2188 0.4688 0.4688   x coordinate   7.3512
     high-symmetry point:  0.2812 0.2812 0.2812   x coordinate   7.6237
     high-symmetry point:  0.2812 0.2812 0.4688   x coordinate   7.8112
     high-symmetry point:  0.2812 0.3438 0.3438   x coordinate   7.9509
     high-symmetry point:  0.2812 0.3438 0.4688   x coordinate   8.0759
     high-symmetry point:  0.2812 0.4062 0.4062   x coordinate   8.1643
     high-symmetry point:  0.2812 0.4062 0.4688   x coordinate   8.2268
     high-symmetry point:  0.2812 0.4688 0.4688   x coordinate   8.2893
     high-symmetry point:  0.3438 0.3438 0.3438   x coordinate   8.4768
     high-symmetry point:  0.3438 0.3438 0.4688   x coordinate   8.6018
     high-symmetry point:  0.3438 0.4062 0.4062   x coordinate   8.6902
     high-symmetry point:  0.3438 0.4062 0.4688   x coordinate   8.7527
     high-symmetry point:  0.3438 0.4688 0.4688   x coordinate   8.8152
     high-symmetry point:  0.4062 0.4062 0.4062   x coordinate   8.9234
     high-symmetry point:  0.4062 0.4062 0.4688   x coordinate   8.9859
     high-symmetry point:  0.4062 0.4688 0.4688   x coordinate   9.0484
     high-symmetry point:  0.4688 0.4688 0.4688   x coordinate   9.1109

     Plottable bands (eV) written to file Bandx.dat.gnu
     Bands written to file Bandx.dat

 **************************************************************************

                    xk=(   0.03125,   0.03125,   0.03125  )

     point group C_3v (3m)  
     there are  3 classes
     the character table:

       E     2C3   3s_v 
A_1    1.00  1.00  1.00
A_2    1.00  1.00 -1.00
E      2.00 -1.00  0.00

     the symmetry operations in each class and the name of the first element:

     E        1
                                                                 
     2C3      2    3
                                                                 
     3s_v     4    5    6
                                                                 

     Band symmetry, C_3v (3m)   point group:

     e(  1 -  1) =    -41.72091  eV     1   --> A_1  L_1       
     e(  2 -  2) =    -18.11413  eV     1   --> A_1  L_1       
     e(  3 -  4) =    -18.11320  eV     2   --> E    L_3       
     e(  5 -  5) =      7.65112  eV     1   --> A_1  L_1       
     e(  6 -  7) =     11.08799  eV     2   --> E    L_3       
     e(  8 -  9) =     13.68612  eV     2   --> E    L_3       
     e( 10 - 10) =     13.72689  eV     1   --> A_1  L_1       
     e( 11 - 12) =     15.87685  eV     2   --> E    L_3       
     e( 13 - 13) =     17.66454  eV     1   -->   ?
     e( 14 - 14) =     17.75862  eV     1   -->   ?

 **************************************************************************

 **************************************************************************

                    xk=(   0.03125,   0.03125,   0.09375  )

     point group C_s (m)    
     there are  2 classes
     the character table:

       E     s    
A'     1.00  1.00
A''    1.00 -1.00

     the symmetry operations in each class and the name of the first element:

     E        1
                                                                 
     s        2
                                                                 

     Band symmetry, C_s (m)     point group:

     e(  1 -  1) =    -41.71818  eV     1   --> A'             
     e(  2 -  2) =    -18.13853  eV     1   --> A'             
     e(  3 -  3) =    -18.11206  eV     1   --> A'             
     e(  4 -  4) =    -18.11155  eV     1   --> A''            
     e(  5 -  5) =      7.80977  eV     1   --> A'             
     e(  6 -  6) =     11.16053  eV     1   --> A''            
     e(  7 -  7) =     11.17004  eV     1   --> A'             
     e(  8 -  8) =     13.65907  eV     1   --> A'             
     e(  9 -  9) =     13.67468  eV     1   --> A''            
     e( 10 - 10) =     13.77507  eV     1   --> A'             
     e( 11 - 11) =     15.78940  eV     1   --> A''            
     e( 12 - 12) =     15.91366  eV     1   --> A'             
     e( 13 - 13) =     17.43064  eV     1   --> A'             
     e( 14 - 14) =     17.54583  eV     1   --> A''            

 **************************************************************************

 **************************************************************************

                    xk=(   0.03125,   0.03125,   0.15625  )

     Band symmetry, C_s (m)     point group:

     e(  1 -  1) =    -41.71313  eV     1   --> A'             
     e(  2 -  2) =    -18.18441  eV     1   --> A'             
     e(  3 -  3) =    -18.10893  eV     1   --> A'             
     e(  4 -  4) =    -18.10850  eV     1   --> A''            
     e(  5 -  5) =      8.11970  eV     1   --> A'             
     e(  6 -  6) =     11.30282  eV     1   --> A''            
     e(  7 -  7) =     11.31942  eV     1   --> A'             
     e(  8 -  8) =     13.63447  eV     1   --> A'             
     e(  9 -  9) =     13.65536  eV     1   --> A''            
     e( 10 - 10) =     13.84214  eV     1   --> A'             
     e( 11 - 11) =     15.61917  eV     1   --> A''            
     e( 12 - 12) =     15.97517  eV     1   --> A'             
     e( 13 - 13) =     17.08308  eV     1   --> A'             
     e( 14 - 14) =     17.18892  eV     1   --> A''            

 **************************************************************************

 **************************************************************************

                    xk=(   0.03125,   0.03125,   0.21875  )

     Band symmetry, C_s (m)     point group:

     e(  1 -  1) =    -41.70651  eV     1   --> A'             
     e(  2 -  2) =    -18.24393  eV     1   --> A'             
     e(  3 -  3) =    -18.10482  eV     1   --> A'             
     e(  4 -  4) =    -18.10450  eV     1   --> A''            
     e(  5 -  5) =      8.56598  eV     1   --> A'             
     e(  6 -  6) =     11.50637  eV     1   --> A'             
     e(  7 -  7) =     11.50875  eV     1   --> A''            
     e(  8 -  8) =     13.61547  eV     1   --> A'             
     e(  9 -  9) =     13.63403  eV     1   --> A''            
     e( 10 - 10) =     13.92387  eV     1   --> A'             
     e( 11 - 11) =     15.37625  eV     1   --> A''            
     e( 12 - 12) =     16.03217  eV     1   --> A'             
     e( 13 - 13) =     16.69203  eV     1   --> A'             
     e( 14 - 14) =     16.77302  eV     1   --> A''            

 **************************************************************************

 **************************************************************************

                    xk=(   0.03125,   0.03125,   0.28125  )

     Band symmetry, C_s (m)     point group:

     e(  1 -  1) =    -41.69936  eV     1   --> A'             
     e(  2 -  2) =    -18.30781  eV     1   --> A'             
     e(  3 -  3) =    -18.10038  eV     1   --> A'             
     e(  4 -  4) =    -18.10018  eV     1   --> A''            
     e(  5 -  5) =      9.12496  eV     1   --> A'             
     e(  6 -  6) =     11.68613  eV     1   --> A'             
     e(  7 -  7) =     11.76758  eV     1   --> A''            
     e(  8 -  8) =     13.60694  eV     1   --> A'             
     e(  9 -  9) =     13.61604  eV     1   --> A''            
     e( 10 - 10) =     14.00999  eV     1   --> A'             
     e( 11 - 11) =     15.07772  eV     1   --> A''            
     e( 12 - 12) =     16.02042  eV     1   --> A'             
     e( 13 - 13) =     16.33859  eV     1   --> A'             
     e( 14 - 14) =     16.36596  eV     1   --> A''            

 **************************************************************************

 **************************************************************************

                    xk=(   0.03125,   0.03125,   0.34375  )

     Band symmetry, C_s (m)     point group:

     e(  1 -  1) =    -41.69271  eV     1   --> A'             
     e(  2 -  2) =    -18.36634  eV     1   --> A'             
     e(  3 -  4) =    -18.09627  eV     2   --> A'             
     e(  3 -  4) =    -18.09627  eV     2   --> A''            
     e(  5 -  5) =      9.76093  eV     1   --> A'             
     e(  6 -  6) =     11.79887  eV     1   --> A'             
     e(  7 -  7) =     12.06035  eV     1   --> A''            
     e(  8 -  8) =     13.60272  eV     1   --> A''            
     e(  9 -  9) =     13.61245  eV     1   --> A'             
     e( 10 - 10) =     14.08579  eV     1   --> A'             
     e( 11 - 11) =     14.75175  eV     1   --> A''            
     e( 12 - 12) =     15.84146  eV     1   --> A'             
     e( 13 - 13) =     16.01618  eV     1   --> A''            
     e( 14 - 14) =     16.11171  eV     1   --> A'             

 **************************************************************************

 **************************************************************************

                    xk=(   0.03125,   0.03125,   0.40625  )

     Band symmetry, C_s (m)     point group:

     e(  1 -  1) =    -41.68763  eV     1   --> A'             
     e(  2 -  2) =    -18.41083  eV     1   --> A'             
     e(  3 -  4) =    -18.09312  eV     2   --> A'             
     e(  3 -  4) =    -18.09312  eV     2   --> A''            
     e(  5 -  5) =     10.41830  eV     1   --> A'             
     e(  6 -  6) =     11.77340  eV     1   --> A'             
     e(  7 -  7) =     12.34993  eV     1   --> A''            
     e(  8 -  8) =     13.58796  eV     1   --> A''            
     e(  9 -  9) =     13.63008  eV     1   --> A'             
     e( 10 - 10) =     14.13763  eV     1   --> A'             
     e( 11 - 11) =     14.44727  eV     1   --> A''            
     e( 12 - 12) =     15.59658  eV     1   --> A'             
     e( 13 - 13) =     15.75929  eV     1   --> A''            
     e( 14 - 14) =     15.93811  eV     1   --> A'             

 **************************************************************************

 **************************************************************************

                    xk=(   0.03125,   0.03125,   0.46875  )

     Band symmetry, C_s (m)     point group:

     e(  1 -  1) =    -41.68485  eV     1   --> A'             
     e(  2 -  2) =    -18.43479  eV     1   --> A'             
     e(  3 -  4) =    -18.09147  eV     2   --> A'             
     e(  3 -  4) =    -18.09147  eV     2   --> A''            
     e(  5 -  5) =     10.99721  eV     1   --> A'             
     e(  6 -  6) =     11.56421  eV     1   --> A'             
     e(  7 -  7) =     12.55602  eV     1   --> A''            
     e(  8 -  8) =     13.56651  eV     1   --> A''            
     e(  9 -  9) =     13.64778  eV     1   --> A'             
     e( 10 - 10) =     14.16122  eV     1   --> A'             
     e( 11 - 11) =     14.24945  eV     1   --> A''            
     e( 12 - 12) =     15.42552  eV     1   --> A'             
     e( 13 - 13) =     15.62264  eV     1   --> A''            
     e( 14 - 14) =     15.82013  eV     1   --> A'             

 **************************************************************************

 **************************************************************************

                    xk=(   0.03125,   0.09375,   0.09375  )

     Band symmetry, C_s (m)     point group:

     e(  1 -  1) =    -41.71548  eV     1   --> A'             
     e(  2 -  2) =    -18.13917  eV     1   --> A'             
     e(  3 -  3) =    -18.13409  eV     1   --> A''            
     e(  4 -  4) =    -18.11006  eV     1   --> A'             
     e(  5 -  5) =      7.96542  eV     1   --> A'             
     e(  6 -  6) =     11.23200  eV     1   --> A'             
     e(  7 -  7) =     11.25022  eV     1   --> A''            
     e(  8 -  8) =     13.60181  eV     1   --> A''            
     e(  9 -  9) =     13.65324  eV     1   --> A'             
     e( 10 - 10) =     13.84691  eV     1   --> A'             
     e( 11 - 11) =     15.77840  eV     1   --> A'             
     e( 12 - 12) =     15.89116  eV     1   --> A''            
     e( 13 - 13) =     17.16948  eV     1   --> A'             
     e( 14 - 14) =     17.39588  eV     1   --> A'             

 **************************************************************************

 **************************************************************************

                    xk=(   0.03125,   0.09375,   0.15625  )

     point group C_1 (1)    
     there are  1 classes
     the character table:

       E    
A      1.00

     the symmetry operations in each class and the name of the first element:

     E        1
                                                                 

     Band symmetry, C_1 (1)     point group:

     e(  1 -  1) =    -41.71047  eV     1   --> A              
     e(  2 -  2) =    -18.18247  eV     1   --> A              
     e(  3 -  3) =    -18.13289  eV     1   --> A              
     e(  4 -  4) =    -18.10688  eV     1   --> A              
     e(  5 -  5) =      8.26906  eV     1   --> A              
     e(  6 -  6) =     11.36362  eV     1   --> A              
     e(  7 -  7) =     11.40379  eV     1   --> A              
     e(  8 -  8) =     13.54491  eV     1   --> A              
     e(  9 -  9) =     13.62278  eV     1   --> A              
     e( 10 - 10) =     13.92325  eV     1   --> A              
     e( 11 - 11) =     15.65319  eV     1   --> A              
     e( 12 - 12) =     15.94032  eV     1   --> A              
     e( 13 - 13) =     16.83589  eV     1   --> A              
     e( 14 - 14) =     17.06390  eV     1   --> A              

 **************************************************************************

 **************************************************************************

                    xk=(   0.03125,   0.09375,   0.21875  )

     Band symmetry, C_1 (1)     point group:

     e(  1 -  1) =    -41.70393  eV     1   --> A              
     e(  2 -  2) =    -18.24145  eV     1   --> A              
     e(  3 -  3) =    -18.12850  eV     1   --> A              
     e(  4 -  4) =    -18.10272  eV     1   --> A              
     e(  5 -  5) =      8.70507  eV     1   --> A              
     e(  6 -  6) =     11.54429  eV     1   --> A              
     e(  7 -  7) =     11.60464  eV     1   --> A              
     e(  8 -  8) =     13.50314  eV     1   --> A              
     e(  9 -  9) =     13.58677  eV     1   --> A              
     e( 10 - 10) =     13.98728  eV     1   --> A              
     e( 11 - 11) =     15.44723  eV     1   --> A              
     e( 12 - 12) =     15.99983  eV     1   --> A              
     e( 13 - 13) =     16.49866  eV     1   --> A              
     e( 14 - 14) =     16.68137  eV     1   --> A              

 **************************************************************************

 **************************************************************************

                    xk=(   0.03125,   0.09375,   0.28125  )

     Band symmetry, C_1 (1)     point group:

     e(  1 -  1) =    -41.69682  eV     1   --> A              
     e(  2 -  2) =    -18.30481  eV     1   --> A              
     e(  3 -  3) =    -18.12369  eV     1   --> A              
     e(  4 -  4) =    -18.09821  eV     1   --> A              
     e(  5 -  5) =      9.24877  eV     1   --> A              
     e(  6 -  6) =     11.73080  eV     1   --> A              
     e(  7 -  7) =     11.83838  eV     1   --> A              
     e(  8 -  8) =     13.48259  eV     1   --> A              
     e(  9 -  9) =     13.55183  eV     1   --> A              
     e( 10 - 10) =     14.02304  eV     1   --> A              
     e( 11 - 11) =     15.19253  eV     1   --> A              
     e( 12 - 12) =     15.93476  eV     1   --> A              
     e( 13 - 13) =     16.28199  eV     1   --> A              
     e( 14 - 14) =     16.33518  eV     1   --> A              

 **************************************************************************

 **************************************************************************

                    xk=(   0.03125,   0.09375,   0.34375  )

     Band symmetry, C_1 (1)     point group:

     e(  1 -  1) =    -41.69025  eV     1   --> A              
     e(  2 -  2) =    -18.36288  eV     1   --> A              
     e(  3 -  3) =    -18.11923  eV     1   --> A              
     e(  4 -  4) =    -18.09404  eV     1   --> A              
     e(  5 -  5) =      9.86326  eV     1   --> A              
     e(  6 -  6) =     11.84313  eV     1   --> A              
     e(  7 -  7) =     12.10422  eV     1   --> A              
     e(  8 -  8) =     13.47992  eV     1   --> A              
     e(  9 -  9) =     13.52787  eV     1   --> A              
     e( 10 - 10) =     14.01904  eV     1   --> A              
     e( 11 - 11) =     14.92028  eV     1   --> A              
     e( 12 - 12) =     15.68686  eV     1   --> A              
     e( 13 - 13) =     16.07493  eV     1   --> A              
     e( 14 - 14) =     16.22785  eV     1   --> A              

 **************************************************************************

 **************************************************************************

                    xk=(   0.03125,   0.09375,   0.40625  )

     Band symmetry, C_1 (1)     point group:

     e(  1 -  1) =    -41.68521  eV     1   --> A              
     e(  2 -  2) =    -18.40702  eV     1   --> A              
     e(  3 -  3) =    -18.11582  eV     1   --> A              
     e(  4 -  4) =    -18.09084  eV     1   --> A              
     e(  5 -  5) =     10.49254  eV     1   --> A              
     e(  6 -  6) =     11.81062  eV     1   --> A              
     e(  7 -  7) =     12.36849  eV     1   --> A              
     e(  8 -  8) =     13.45787  eV     1   --> A              
     e(  9 -  9) =     13.54598  eV     1   --> A              
     e( 10 - 10) =     13.98213  eV     1   --> A              
     e( 11 - 11) =     14.68077  eV     1   --> A              
     e( 12 - 12) =     15.43452  eV     1   --> A              
     e( 13 - 13) =     15.89891  eV     1   --> A              
     e( 14 - 14) =     16.17895  eV     1   --> A              

 **************************************************************************

 **************************************************************************

                    xk=(   0.03125,   0.09375,   0.46875  )

     Band symmetry, C_1 (1)     point group:

     e(  1 -  1) =    -41.68249  eV     1   --> A              
     e(  2 -  2) =    -18.43081  eV     1   --> A              
     e(  3 -  3) =    -18.11397  eV     1   --> A              
     e(  4 -  4) =    -18.08911  eV     1   --> A              
     e(  5 -  5) =     11.03864  eV     1   --> A              
     e(  6 -  6) =     11.60509  eV     1   --> A              
     e(  7 -  7) =     12.55540  eV     1   --> A              
     e(  8 -  8) =     13.41933  eV     1   --> A              
     e(  9 -  9) =     13.58324  eV     1   --> A              
     e( 10 - 10) =     13.94306  eV     1   --> A              
     e( 11 - 11) =     14.54026  eV     1   --> A              
     e( 12 - 12) =     15.26838  eV     1   --> A              
     e( 13 - 13) =     15.79717  eV     1   --> A              
     e( 14 - 14) =     16.14218  eV     1   --> A              

 **************************************************************************

 **************************************************************************

                    xk=(   0.03125,   0.15625,   0.15625  )

     point group C_s (m)    
     there are  2 classes
     the character table:

       E     s    
A'     1.00  1.00
A''    1.00 -1.00

     the symmetry operations in each class and the name of the first element:

     E        1
                                                                 
     s        2
                                                                 

     Band symmetry, C_s (m)     point group:

     e(  1 -  1) =    -41.70556  eV     1   --> A'             
     e(  2 -  2) =    -18.18373  eV     1   --> A'             
     e(  3 -  3) =    -18.17249  eV     1   --> A''            
     e(  4 -  4) =    -18.10353  eV     1   --> A'             
     e(  5 -  5) =      8.55927  eV     1   --> A'             
     e(  6 -  6) =     11.46995  eV     1   --> A'             
     e(  7 -  7) =     11.56858  eV     1   --> A''            
     e(  8 -  8) =     13.44664  eV     1   --> A''            
     e(  9 -  9) =     13.57402  eV     1   --> A'             
     e( 10 - 10) =     13.99052  eV     1   --> A'             
     e( 11 - 11) =     15.65822  eV     1   --> A'             
     e( 12 - 12) =     15.92169  eV     1   --> A''            
     e( 13 - 13) =     16.53769  eV     1   --> A'             
     e( 14 - 14) =     16.78638  eV     1   --> A'             

 **************************************************************************

 **************************************************************************

                    xk=(   0.03125,   0.15625,   0.21875  )

     point group C_1 (1)    
     there are  1 classes
     the character table:

       E    
A      1.00

     the symmetry operations in each class and the name of the first element:

     E        1
                                                                 

     Band symmetry, C_1 (1)     point group:

     e(  1 -  1) =    -41.69913  eV     1   --> A              
     e(  2 -  2) =    -18.23708  eV     1   --> A              
     e(  3 -  3) =    -18.17211  eV     1   --> A              
     e(  4 -  4) =    -18.09915  eV     1   --> A              
     e(  5 -  5) =      8.97293  eV     1   --> A              
     e(  6 -  6) =     11.60946  eV     1   --> A              
     e(  7 -  7) =     11.78691  eV     1   --> A              
     e(  8 -  8) =     13.36662  eV     1   --> A              
     e(  9 -  9) =     13.51853  eV     1   --> A              
     e( 10 - 10) =     14.00966  eV     1   --> A              
     e( 11 - 11) =     15.55363  eV     1   --> A              
     e( 12 - 12) =     15.95603  eV     1   --> A              
     e( 13 - 13) =     16.25518  eV     1   --> A              
     e( 14 - 14) =     16.50701  eV     1   --> A              

 **************************************************************************

 **************************************************************************

                    xk=(   0.03125,   0.15625,   0.28125  )

     Band symmetry, C_1 (1)     point group:

     e(  1 -  1) =    -41.69216  eV     1   --> A              
     e(  2 -  2) =    -18.29931  eV     1   --> A              
     e(  3 -  3) =    -18.16671  eV     1   --> A              
     e(  4 -  4) =    -18.09440  eV     1   --> A              
     e(  5 -  5) =      9.48251  eV     1   --> A              
     e(  6 -  6) =     11.75063  eV     1   --> A              
     e(  7 -  7) =     12.02987  eV     1   --> A              
     e(  8 -  8) =     13.31587  eV     1   --> A              
     e(  9 -  9) =     13.47018  eV     1   --> A              
     e( 10 - 10) =     13.96481  eV     1   --> A              
     e( 11 - 11) =     15.37841  eV     1   --> A              
     e( 12 - 12) =     15.80044  eV     1   --> A              
     e( 13 - 13) =     16.19413  eV     1   --> A              
     e( 14 - 14) =     16.33029  eV     1   --> A              

 **************************************************************************

 **************************************************************************

                    xk=(   0.03125,   0.15625,   0.34375  )

     Band symmetry, C_1 (1)     point group:

     e(  1 -  1) =    -41.68571  eV     1   --> A              
     e(  2 -  2) =    -18.35649  eV     1   --> A              
     e(  3 -  3) =    -18.16155  eV     1   --> A              
     e(  4 -  4) =    -18.09000  eV     1   --> A              
     e(  5 -  5) =     10.04758  eV     1   --> A              
     e(  6 -  6) =     11.83636  eV     1   --> A              
     e(  7 -  7) =     12.27237  eV     1   --> A              
     e(  8 -  8) =     13.29856  eV     1   --> A              
     e(  9 -  9) =     13.44689  eV     1   --> A              
     e( 10 - 10) =     13.86549  eV     1   --> A              
     e( 11 - 11) =     15.17748  eV     1   --> A              
     e( 12 - 12) =     15.53435  eV     1   --> A              
     e( 13 - 13) =     16.18816  eV     1   --> A              
     e( 14 - 14) =     16.33400  eV     1   --> A              

 **************************************************************************

 **************************************************************************

                    xk=(   0.03125,   0.15625,   0.40625  )

     Band symmetry, C_1 (1)     point group:

     e(  1 -  1) =    -41.68076  eV     1   --> A              
     e(  2 -  2) =    -18.39999  eV     1   --> A              
     e(  3 -  3) =    -18.15758  eV     1   --> A              
     e(  4 -  4) =    -18.08663  eV     1   --> A              
     e(  5 -  5) =     10.61020  eV     1   --> A              
     e(  6 -  6) =     11.79851  eV     1   --> A              
     e(  7 -  7) =     12.48779  eV     1   --> A              
     e(  8 -  8) =     13.30594  eV     1   --> A              
     e(  9 -  9) =     13.46801  eV     1   --> A              
     e( 10 - 10) =     13.74525  eV     1   --> A              
     e( 11 - 11) =     15.00374  eV     1   --> A              
     e( 12 - 12) =     15.30437  eV     1   --> A              
     e( 13 - 13) =     16.12791  eV     1   --> A              
     e( 14 - 14) =     16.42754  eV     1   --> A              

 **************************************************************************

 **************************************************************************

                    xk=(   0.03125,   0.15625,   0.46875  )

     Band symmetry, C_1 (1)     point group:

     e(  1 -  1) =    -41.67809  eV     1   --> A              
     e(  2 -  2) =    -18.42343  eV     1   --> A              
     e(  3 -  3) =    -18.15542  eV     1   --> A              
     e(  4 -  4) =    -18.08480  eV     1   --> A              
     e(  5 -  5) =     11.07574  eV     1   --> A              
     e(  6 -  6) =     11.62330  eV     1   --> A              
     e(  7 -  7) =     12.62651  eV     1   --> A              
     e(  8 -  8) =     13.31735  eV     1   --> A              
     e(  9 -  9) =     13.52097  eV     1   --> A              
     e( 10 - 10) =     13.64691  eV     1   --> A              
     e( 11 - 11) =     14.92226  eV     1   --> A              
     e( 12 - 12) =     15.13741  eV     1   --> A              
     e( 13 - 13) =     16.07763  eV     1   --> A              
     e( 14 - 14) =     16.49873  eV     1   --> A              

 **************************************************************************

 **************************************************************************

                    xk=(   0.03125,   0.21875,   0.21875  )

     point group C_s (m)    
     there are  2 classes
     the character table:

       E     s    
A'     1.00  1.00
A''    1.00 -1.00

     the symmetry operations in each class and the name of the first element:

     E        1
                                                                 
     s        2
                                                                 

     Band symmetry, C_s (m)     point group:

     e(  1 -  1) =    -41.69286  eV     1   --> A'             
     e(  2 -  2) =    -18.23778  eV     1   --> A'             
     e(  3 -  3) =    -18.22229  eV     1   --> A''            
     e(  4 -  4) =    -18.09447  eV     1   --> A'             
     e(  5 -  5) =      9.34829  eV     1   --> A'             
     e(  6 -  6) =     11.68683  eV     1   --> A'             
     e(  7 -  7) =     12.03031  eV     1   --> A''            
     e(  8 -  8) =     13.24571  eV     1   --> A''            
     e(  9 -  9) =     13.45218  eV     1   --> A'             
     e( 10 - 10) =     13.95106  eV     1   --> A'             
     e( 11 - 11) =     15.61284  eV     1   --> A'             
     e( 12 - 12) =     15.96918  eV     1   --> A''            
     e( 13 - 13) =     15.97007  eV     1   --> A'             
     e( 14 - 14) =     16.40394  eV     1   --> A'             

 **************************************************************************

 **************************************************************************

                    xk=(   0.03125,   0.21875,   0.28125  )

     point group C_1 (1)    
     there are  1 classes
     the character table:

       E    
A      1.00

     the symmetry operations in each class and the name of the first element:

     E        1
                                                                 

     Band symmetry, C_1 (1)     point group:

     e(  1 -  1) =    -41.68606  eV     1   --> A              
     e(  2 -  2) =    -18.29237  eV     1   --> A              
     e(  3 -  3) =    -18.22229  eV     1   --> A              
     e(  4 -  4) =    -18.08940  eV     1   --> A              
     e(  5 -  5) =      9.79762  eV     1   --> A              
     e(  6 -  6) =     11.74946  eV     1   --> A              
     e(  7 -  7) =     12.30185  eV     1   --> A              
     e(  8 -  8) =     13.15749  eV     1   --> A              
     e(  9 -  9) =     13.41556  eV     1   --> A              
     e( 10 - 10) =     13.81823  eV     1   --> A              
     e( 11 - 11) =     15.57029  eV     1   --> A              
     e( 12 - 12) =     15.68035  eV     1   --> A              
     e( 13 - 13) =     16.08414  eV     1   --> A              
     e( 14 - 14) =     16.41549  eV     1   --> A              

 **************************************************************************

 **************************************************************************

                    xk=(   0.03125,   0.21875,   0.34375  )

     Band symmetry, C_1 (1)     point group:

     e(  1 -  1) =    -41.67976  eV     1   --> A              
     e(  2 -  2) =    -18.34817  eV     1   --> A              
     e(  3 -  3) =    -18.21645  eV     1   --> A              
     e(  4 -  4) =    -18.08471  eV     1   --> A              
     e(  5 -  5) =     10.27394  eV     1   --> A              
     e(  6 -  6) =     11.76196  eV     1   --> A              
     e(  7 -  7) =     12.55845  eV     1   --> A              
     e(  8 -  8) =     13.11164  eV     1   --> A              
     e(  9 -  9) =     13.44492  eV     1   --> A              
     e( 10 - 10) =     13.64813  eV     1   --> A              
     e( 11 - 11) =     15.41740  eV     1   --> A              
     e( 12 - 12) =     15.49008  eV     1   --> A              
     e( 13 - 13) =     16.21271  eV     1   --> A              
     e( 14 - 14) =     16.52597  eV     1   --> A              

 **************************************************************************

 **************************************************************************

                    xk=(   0.03125,   0.21875,   0.40625  )

     Band symmetry, C_1 (1)     point group:

     e(  1 -  1) =    -41.67494  eV     1   --> A              
     e(  2 -  2) =    -18.39080  eV     1   --> A              
     e(  3 -  3) =    -18.21179  eV     1   --> A              
     e(  4 -  4) =    -18.08112  eV     1   --> A              
     e(  5 -  5) =     10.71809  eV     1   --> A              
     e(  6 -  6) =     11.69503  eV     1   --> A              
     e(  7 -  7) =     12.74864  eV     1   --> A              
     e(  8 -  8) =     13.11204  eV     1   --> A              
     e(  9 -  9) =     13.47335  eV     1   --> A              
     e( 10 - 10) =     13.57585  eV     1   --> A              
     e( 11 - 11) =     15.19776  eV     1   --> A              
     e( 12 - 12) =     15.40399  eV     1   --> A              
     e( 13 - 13) =     16.28834  eV     1   --> A              
     e( 14 - 14) =     16.70328  eV     1   --> A              

 **************************************************************************

 **************************************************************************

                    xk=(   0.03125,   0.21875,   0.46875  )

     Band symmetry, C_1 (1)     point group:

     e(  1 -  1) =    -41.67234  eV     1   --> A              
     e(  2 -  2) =    -18.41379  eV     1   --> A              
     e(  3 -  3) =    -18.20924  eV     1   --> A              
     e(  4 -  4) =    -18.07917  eV     1   --> A              
     e(  5 -  5) =     11.04917  eV     1   --> A              
     e(  6 -  6) =     11.56565  eV     1   --> A              
     e(  7 -  7) =     12.84304  eV     1   --> A              
     e(  8 -  8) =     13.14958  eV     1   --> A              
     e(  9 -  9) =     13.34748  eV     1   --> A              
     e( 10 - 10) =     13.72279  eV     1   --> A              
     e( 11 - 11) =     15.04920  eV     1   --> A              
     e( 12 - 12) =     15.33853  eV     1   --> A              
     e( 13 - 13) =     16.31450  eV     1   --> A              
     e( 14 - 14) =     16.85868  eV     1   --> A              

 **************************************************************************

 **************************************************************************

                    xk=(   0.03125,   0.28125,   0.28125  )

     point group C_s (m)    
     there are  2 classes
     the character table:

       E     s    
A'     1.00  1.00
A''    1.00 -1.00

     the symmetry operations in each class and the name of the first element:

     E        1
                                                                 
     s        2
                                                                 

     Band symmetry, C_s (m)     point group:

     e(  1 -  1) =    -41.67944  eV     1   --> A'             
     e(  2 -  2) =    -18.29109  eV     1   --> A'             
     e(  3 -  3) =    -18.27573  eV     1   --> A''            
     e(  4 -  4) =    -18.08399  eV     1   --> A'             
     e(  5 -  5) =     10.15105  eV     1   --> A'             
     e(  6 -  6) =     11.71857  eV     1   --> A'             
     e(  7 -  7) =     12.61478  eV     1   --> A''            
     e(  8 -  8) =     13.03126  eV     1   --> A''            
     e(  9 -  9) =     13.42915  eV     1   --> A'             
     e( 10 - 10) =     13.61848  eV     1   --> A'             
     e( 11 - 11) =     15.53992  eV     1   --> A'             
     e( 12 - 12) =     15.75707  eV     1   --> A'             
     e( 13 - 13) =     16.02738  eV     1   --> A''            
     e( 14 - 14) =     16.57368  eV     1   --> A'             

 **************************************************************************

 **************************************************************************

                    xk=(   0.03125,   0.28125,   0.34375  )

     point group C_1 (1)    
     there are  1 classes
     the character table:

       E    
A      1.00

     the symmetry operations in each class and the name of the first element:

     E        1
                                                                 

     Band symmetry, C_1 (1)     point group:

     e(  1 -  1) =    -41.67332  eV     1   --> A              
     e(  2 -  2) =    -18.33932  eV     1   --> A              
     e(  3 -  3) =    -18.27526  eV     1   --> A              
     e(  4 -  4) =    -18.07898  eV     1   --> A              
     e(  5 -  5) =     10.49110  eV     1   --> A              
     e(  6 -  6) =     11.64985  eV     1   --> A              
     e(  7 -  7) =     12.91280  eV     1   --> A              
     e(  8 -  8) =     12.95183  eV     1   --> A              
     e(  9 -  9) =     13.40900  eV     1   --> A              
     e( 10 - 10) =     13.55874  eV     1   --> A              
     e( 11 - 11) =     15.43348  eV     1   --> A              
     e( 12 - 12) =     15.74736  eV     1   --> A              
     e( 13 - 13) =     16.14957  eV     1   --> A              
     e( 14 - 14) =     16.77586  eV     1   --> A              

 **************************************************************************

 **************************************************************************

                    xk=(   0.03125,   0.28125,   0.40625  )

     Band symmetry, C_1 (1)     point group:

     e(  1 -  1) =    -41.66863  eV     1   --> A              
     e(  2 -  2) =    -18.38084  eV     1   --> A              
     e(  3 -  3) =    -18.27001  eV     1   --> A              
     e(  4 -  4) =    -18.07515  eV     1   --> A              
     e(  5 -  5) =     10.77169  eV     1   --> A              
     e(  6 -  6) =     11.55028  eV     1   --> A              
     e(  7 -  7) =     12.92471  eV     1   --> A              
     e(  8 -  8) =     13.10735  eV     1   --> A              
     e(  9 -  9) =     13.23824  eV     1   --> A              
     e( 10 - 10) =     13.83688  eV     1   --> A              
     e( 11 - 11) =     15.25064  eV     1   --> A              
     e( 12 - 12) =     15.72451  eV     1   --> A              
     e( 13 - 13) =     16.32174  eV     1   --> A              
     e( 14 - 14) =     16.99944  eV     1   --> A              

 **************************************************************************

 **************************************************************************

                    xk=(   0.03125,   0.28125,   0.46875  )

     Band symmetry, C_1 (1)     point group:

     e(  1 -  1) =    -41.66609  eV     1   --> A              
     e(  2 -  2) =    -18.40333  eV     1   --> A              
     e(  3 -  3) =    -18.26706  eV     1   --> A              
     e(  4 -  4) =    -18.07307  eV     1   --> A              
     e(  5 -  5) =     10.95069  eV     1   --> A              
     e(  6 -  6) =     11.45668  eV     1   --> A              
     e(  7 -  7) =     12.95290  eV     1   --> A              
     e(  8 -  8) =     13.05873  eV     1   --> A              
     e(  9 -  9) =     13.24351  eV     1   --> A              
     e( 10 - 10) =     14.15072  eV     1   --> A              
     e( 11 - 11) =     15.03085  eV     1   --> A              
     e( 12 - 12) =     15.72052  eV     1   --> A              
     e( 13 - 13) =     16.43680  eV     1   --> A              
     e( 14 - 14) =     17.19587  eV     1   --> A              

 **************************************************************************

 **************************************************************************

                    xk=(   0.03125,   0.34375,   0.34375  )

     point group C_s (m)    
     there are  2 classes
     the character table:

       E     s    
A'     1.00  1.00
A''    1.00 -1.00

     the symmetry operations in each class and the name of the first element:

     E        1
                                                                 
     s        2
                                                                 

     Band symmetry, C_s (m)     point group:

     e(  1 -  1) =    -41.66735  eV     1   --> A'             
     e(  2 -  2) =    -18.33563  eV     1   --> A'             
     e(  3 -  3) =    -18.32468  eV     1   --> A''            
     e(  4 -  4) =    -18.07368  eV     1   --> A'             
     e(  5 -  5) =     10.65947  eV     1   --> A'             
     e(  6 -  6) =     11.52433  eV     1   --> A'             
     e(  7 -  7) =     12.83622  eV     1   --> A''            
     e(  8 -  8) =     13.18285  eV     1   --> A'             
     e(  9 -  9) =     13.28806  eV     1   --> A''            
     e( 10 - 10) =     13.79461  eV     1   --> A'             
     e( 11 - 11) =     15.47982  eV     1   --> A'             
     e( 12 - 12) =     15.97431  eV     1   --> A'             
     e( 13 - 13) =     16.07591  eV     1   --> A''            
     e( 14 - 14) =     17.03268  eV     1   --> A'             

 **************************************************************************

 **************************************************************************

                    xk=(   0.03125,   0.34375,   0.40625  )

     point group C_1 (1)    
     there are  1 classes
     the character table:

       E    
A      1.00

     the symmetry operations in each class and the name of the first element:

     E        1
                                                                 

     Band symmetry, C_1 (1)     point group:

     e(  1 -  1) =    -41.66278  eV     1   --> A              
     e(  2 -  2) =    -18.37168  eV     1   --> A              
     e(  3 -  3) =    -18.32336  eV     1   --> A              
     e(  4 -  4) =    -18.06962  eV     1   --> A              
     e(  5 -  5) =     10.76901  eV     1   --> A              
     e(  6 -  6) =     11.41201  eV     1   --> A              
     e(  7 -  7) =     12.77882  eV     1   --> A              
     e(  8 -  8) =     12.99515  eV     1   --> A              
     e(  9 -  9) =     13.57183  eV     1   --> A              
     e( 10 - 10) =     14.17409  eV     1   --> A              
     e( 11 - 11) =     15.40838  eV     1   --> A              
     e( 12 - 12) =     16.00104  eV     1   --> A              
     e( 13 - 13) =     16.24317  eV     1   --> A              
     e( 14 - 14) =     17.27639  eV     1   --> A              

 **************************************************************************

 **************************************************************************

                    xk=(   0.03125,   0.34375,   0.46875  )

     Band symmetry, C_1 (1)     point group:

     e(  1 -  1) =    -41.66031  eV     1   --> A              
     e(  2 -  2) =    -18.39366  eV     1   --> A              
     e(  3 -  3) =    -18.32009  eV     1   --> A              
     e(  4 -  4) =    -18.06742  eV     1   --> A              
     e(  5 -  5) =     10.82468  eV     1   --> A              
     e(  6 -  6) =     11.34268  eV     1   --> A              
     e(  7 -  7) =     12.78391  eV     1   --> A              
     e(  8 -  8) =     12.86212  eV     1   --> A              
     e(  9 -  9) =     13.70333  eV     1   --> A              
     e( 10 - 10) =     14.64352  eV     1   --> A              
     e( 11 - 11) =     15.11549  eV     1   --> A              
     e( 12 - 12) =     16.04541  eV     1   --> A              
     e( 13 - 13) =     16.40741  eV     1   --> A              
     e( 14 - 14) =     17.48189  eV     1   --> A              

 **************************************************************************

 **************************************************************************

                    xk=(   0.03125,   0.40625,   0.40625  )

     point group C_s (m)    
     there are  2 classes
     the character table:

       E     s    
A'     1.00  1.00
A''    1.00 -1.00

     the symmetry operations in each class and the name of the first element:

     E        1
                                                                 
     s        2
                                                                 

     Band symmetry, C_s (m)     point group:

     e(  1 -  1) =    -41.65830  eV     1   --> A'             
     e(  2 -  2) =    -18.36673  eV     1   --> A'             
     e(  3 -  3) =    -18.36187  eV     1   --> A''            
     e(  4 -  4) =    -18.06539  eV     1   --> A'             
     e(  5 -  5) =     10.74037  eV     1   --> A'             
     e(  6 -  6) =     11.30843  eV     1   --> A'             
     e(  7 -  7) =     12.68934  eV     1   --> A''            
     e(  8 -  8) =     12.82327  eV     1   --> A'             
     e(  9 -  9) =     13.98222  eV     1   --> A''            
     e( 10 - 10) =     14.51609  eV     1   --> A'             
     e( 11 - 11) =     15.61313  eV     1   --> A'             
     e( 12 - 12) =     16.07397  eV     1   --> A''            
     e( 13 - 13) =     16.24178  eV     1   --> A'             
     e( 14 - 14) =     17.51124  eV     1   --> A'             

 **************************************************************************

 **************************************************************************

                    xk=(   0.03125,   0.40625,   0.46875  )

     point group C_1 (1)    
     there are  1 classes
     the character table:

       E    
A      1.00

     the symmetry operations in each class and the name of the first element:

     E        1
                                                                 

     Band symmetry, C_1 (1)     point group:

     e(  1 -  1) =    -41.65587  eV     1   --> A              
     e(  2 -  2) =    -18.38625  eV     1   --> A              
     e(  3 -  3) =    -18.36043  eV     1   --> A              
     e(  4 -  4) =    -18.06309  eV     1   --> A              
     e(  5 -  5) =     10.71730  eV     1   --> A              
     e(  6 -  6) =     11.25383  eV     1   --> A              
     e(  7 -  7) =     12.66524  eV     1   --> A              
     e(  8 -  8) =     12.71132  eV     1   --> A              
     e(  9 -  9) =     14.19299  eV     1   --> A              
     e( 10 - 10) =     14.89004  eV     1   --> A              
     e( 11 - 11) =     15.50230  eV     1   --> A              
     e( 12 - 12) =     16.19236  eV     1   --> A              
     e( 13 - 13) =     16.30527  eV     1   --> A              
     e( 14 - 14) =     17.69071  eV     1   --> A              

 **************************************************************************

 **************************************************************************

                    xk=(   0.03125,   0.46875,   0.46875  )

     point group C_s (m)    
     there are  2 classes
     the character table:

       E     s    
A'     1.00  1.00
A''    1.00 -1.00

     the symmetry operations in each class and the name of the first element:

     E        1
                                                                 
     s        2
                                                                 

     Band symmetry, C_s (m)     point group:

     e(  1 -  1) =    -41.65347  eV     1   --> A'             
     e(  2 -  2) =    -18.38250  eV     1   --> A'             
     e(  3 -  3) =    -18.38190  eV     1   --> A''            
     e(  4 -  4) =    -18.06075  eV     1   --> A'             
     e(  5 -  5) =     10.65718  eV     1   --> A'             
     e(  6 -  6) =     11.20604  eV     1   --> A'             
     e(  7 -  7) =     12.61069  eV     1   --> A''            
     e(  8 -  8) =     12.62601  eV     1   --> A'             
     e(  9 -  9) =     14.52147  eV     1   --> A''            
     e( 10 - 10) =     15.01919  eV     1   --> A'             
     e( 11 - 11) =     15.89515  eV     1   --> A'             
     e( 12 - 12) =     15.99483  eV     1   --> A''            
     e( 13 - 13) =     16.37411  eV     1   --> A'             
     e( 14 - 14) =     17.81566  eV     1   -->   ?

 **************************************************************************

 **************************************************************************

                    xk=(   0.09375,   0.09375,   0.09375  )

     point group C_3v (3m)  
     there are  3 classes
     the character table:

       E     2C3   3s_v 
A_1    1.00  1.00  1.00
A_2    1.00  1.00 -1.00
E      2.00 -1.00  0.00

     the symmetry operations in each class and the name of the first element:

     E        1
                                                                 
     2C3      2    3
                                                                 
     3s_v     4    5    6
                                                                 

     Band symmetry, C_3v (3m)   point group:

     e(  1 -  1) =    -41.71281  eV     1   --> A_1  L_1       
     e(  2 -  2) =    -18.13934  eV     1   --> A_1  L_1       
     e(  3 -  4) =    -18.13240  eV     2   --> E    L_3       
     e(  5 -  5) =      8.11852  eV     1   --> A_1  L_1       
     e(  6 -  7) =     11.31576  eV     2   --> E    L_3       
     e(  8 -  9) =     13.58238  eV     2   --> E    L_3       
     e( 10 - 10) =     13.91093  eV     1   --> A_1  L_1       
     e( 11 - 12) =     15.82501  eV     2   --> E    L_3       
     e( 13 - 13) =     16.87913  eV     1   --> A_1  L_1       
     e( 14 - 14) =     17.52839  eV     1   -->   ?

 **************************************************************************

 **************************************************************************

                    xk=(   0.09375,   0.09375,   0.15625  )

     point group C_s (m)    
     there are  2 classes
     the character table:

       E     s    
A'     1.00  1.00
A''    1.00 -1.00

     the symmetry operations in each class and the name of the first element:

     E        1
                                                                 
     s        2
                                                                 

     Band symmetry, C_s (m)     point group:

     e(  1 -  1) =    -41.70784  eV     1   --> A'             
     e(  2 -  2) =    -18.18046  eV     1   --> A'             
     e(  3 -  3) =    -18.13264  eV     1   --> A'             
     e(  4 -  4) =    -18.12928  eV     1   --> A''            
     e(  5 -  5) =      8.41677  eV     1   --> A'             
     e(  6 -  6) =     11.44374  eV     1   --> A''            
     e(  7 -  7) =     11.46758  eV     1   --> A'             
     e(  8 -  8) =     13.50667  eV     1   --> A'             
     e(  9 -  9) =     13.54689  eV     1   --> A''            
     e( 10 - 10) =     13.96978  eV     1   --> A'             
     e( 11 - 11) =     15.69666  eV     1   --> A''            
     e( 12 - 12) =     15.90409  eV     1   --> A'             
     e( 13 - 13) =     16.57238  eV     1   --> A'             
     e( 14 - 14) =     17.16827  eV     1   --> A''            

 **************************************************************************

 **************************************************************************

                    xk=(   0.09375,   0.09375,   0.21875  )

     Band symmetry, C_s (m)     point group:

     e(  1 -  1) =    -41.70135  eV     1   --> A'             
     e(  2 -  2) =    -18.23896  eV     1   --> A'             
     e(  3 -  3) =    -18.12777  eV     1   --> A'             
     e(  4 -  4) =    -18.12520  eV     1   --> A''            
     e(  5 -  5) =      8.84391  eV     1   --> A'             
     e(  6 -  6) =     11.62762  eV     1   --> A''            
     e(  7 -  7) =     11.65542  eV     1   --> A'             
     e(  8 -  8) =     13.45008  eV     1   --> A'             
     e(  9 -  9) =     13.50033  eV     1   --> A''            
     e( 10 - 10) =     13.99352  eV     1   --> A'             
     e( 11 - 11) =     15.51479  eV     1   --> A''            
     e( 12 - 12) =     15.97062  eV     1   --> A'             
     e( 13 - 13) =     16.32705  eV     1   --> A'             
     e( 14 - 14) =     16.75273  eV     1   --> A''            

 **************************************************************************

 **************************************************************************

                    xk=(   0.09375,   0.09375,   0.28125  )

     Band symmetry, C_s (m)     point group:

     e(  1 -  1) =    -41.69430  eV     1   --> A'             
     e(  2 -  2) =    -18.30186  eV     1   --> A'             
     e(  3 -  3) =    -18.12238  eV     1   --> A'             
     e(  4 -  4) =    -18.12078  eV     1   --> A''            
     e(  5 -  5) =      9.37431  eV     1   --> A'             
     e(  6 -  6) =     11.83009  eV     1   --> A'             
     e(  7 -  7) =     11.85603  eV     1   --> A''            
     e(  8 -  8) =     13.42622  eV     1   --> A'             
     e(  9 -  9) =     13.44646  eV     1   --> A''            
     e( 10 - 10) =     13.96924  eV     1   --> A'             
     e( 11 - 11) =     15.29506  eV     1   --> A''            
     e( 12 - 12) =     15.90007  eV     1   --> A'             
     e( 13 - 13) =     16.27377  eV     1   --> A'             
     e( 14 - 14) =     16.35077  eV     1   --> A''            

 **************************************************************************

 **************************************************************************

                    xk=(   0.09375,   0.09375,   0.34375  )

     Band symmetry, C_s (m)     point group:

     e(  1 -  1) =    -41.68780  eV     1   --> A'             
     e(  2 -  2) =    -18.35952  eV     1   --> A'             
     e(  3 -  3) =    -18.11738  eV     1   --> A'             
     e(  4 -  4) =    -18.11670  eV     1   --> A''            
     e(  5 -  5) =      9.96996  eV     1   --> A'             
     e(  6 -  6) =     11.92586  eV     1   --> A'             
     e(  7 -  7) =     12.11031  eV     1   --> A''            
     e(  8 -  8) =     13.38473  eV     1   --> A''            
     e(  9 -  9) =     13.44737  eV     1   --> A'             
     e( 10 - 10) =     13.90973  eV     1   --> A'             
     e( 11 - 11) =     15.06371  eV     1   --> A''            
     e( 12 - 12) =     15.71434  eV     1   --> A'             
     e( 13 - 13) =     16.01049  eV     1   --> A''            
     e( 14 - 14) =     16.35558  eV     1   --> A'             

 **************************************************************************

 **************************************************************************

                    xk=(   0.09375,   0.09375,   0.40625  )

     Band symmetry, C_s (m)     point group:

     e(  1 -  1) =    -41.68281  eV     1   --> A'             
     e(  2 -  2) =    -18.40335  eV     1   --> A'             
     e(  3 -  4) =    -18.11357  eV     2   --> A'             
     e(  3 -  4) =    -18.11357  eV     2   --> A''            
     e(  5 -  5) =     10.57479  eV     1   --> A'             
     e(  6 -  6) =     11.87500  eV     1   --> A'             
     e(  7 -  7) =     12.35745  eV     1   --> A''            
     e(  8 -  8) =     13.31197  eV     1   --> A''            
     e(  9 -  9) =     13.52073  eV     1   --> A'             
     e( 10 - 10) =     13.84560  eV     1   --> A'             
     e( 11 - 11) =     14.86177  eV     1   --> A''            
     e( 12 - 12) =     15.48838  eV     1   --> A'             
     e( 13 - 13) =     15.76510  eV     1   --> A''            
     e( 14 - 14) =     16.46126  eV     1   --> A'             

 **************************************************************************

 **************************************************************************

                    xk=(   0.09375,   0.09375,   0.46875  )

     Band symmetry, C_s (m)     point group:

     e(  1 -  1) =    -41.68010  eV     1   --> A'             
     e(  2 -  2) =    -18.42697  eV     1   --> A'             
     e(  3 -  3) =    -18.11188  eV     1   --> A''            
     e(  4 -  4) =    -18.11146  eV     1   --> A'             
     e(  5 -  5) =     11.09372  eV     1   --> A'             
     e(  6 -  6) =     11.66341  eV     1   --> A'             
     e(  7 -  7) =     12.53206  eV     1   --> A''            
     e(  8 -  8) =     13.24415  eV     1   --> A''            
     e(  9 -  9) =     13.61617  eV     1   --> A'             
     e( 10 - 10) =     13.79256  eV     1   --> A'             
     e( 11 - 11) =     14.74102  eV     1   --> A''            
     e( 12 - 12) =     15.30464  eV     1   --> A'             
     e( 13 - 13) =     15.63657  eV     1   --> A''            
     e( 14 - 14) =     16.54518  eV     1   --> A'             

 **************************************************************************

 **************************************************************************

                    xk=(   0.09375,   0.15625,   0.15625  )

     Band symmetry, C_s (m)     point group:

     e(  1 -  1) =    -41.70297  eV     1   --> A'             
     e(  2 -  2) =    -18.18135  eV     1   --> A'             
     e(  3 -  3) =    -18.17074  eV     1   --> A''            
     e(  4 -  4) =    -18.12729  eV     1   --> A'             
     e(  5 -  5) =      8.70343  eV     1   --> A'             
     e(  6 -  6) =     11.55912  eV     1   --> A'             
     e(  7 -  7) =     11.62026  eV     1   --> A''            
     e(  8 -  8) =     13.41772  eV     1   --> A''            
     e(  9 -  9) =     13.48315  eV     1   --> A'             
     e( 10 - 10) =     13.98661  eV     1   --> A'             
     e( 11 - 11) =     15.71656  eV     1   --> A'             
     e( 12 - 12) =     15.88648  eV     1   --> A''            
     e( 13 - 13) =     16.33851  eV     1   --> A'             
     e( 14 - 14) =     16.98952  eV     1   --> A'             

 **************************************************************************

 **************************************************************************

                    xk=(   0.09375,   0.15625,   0.21875  )

     point group C_1 (1)    
     there are  1 classes
     the character table:

       E    
A      1.00

     the symmetry operations in each class and the name of the first element:

     E        1
                                                                 

     Band symmetry, C_1 (1)     point group:

     e(  1 -  1) =    -41.69658  eV     1   --> A              
     e(  2 -  2) =    -18.23455  eV     1   --> A              
     e(  3 -  3) =    -18.17006  eV     1   --> A              
     e(  4 -  4) =    -18.12268  eV     1   --> A              
     e(  5 -  5) =      9.11110  eV     1   --> A              
     e(  6 -  6) =     11.70441  eV     1   --> A              
     e(  7 -  7) =     11.82613  eV     1   --> A              
     e(  8 -  8) =     13.33223  eV     1   --> A              
     e(  9 -  9) =     13.42191  eV     1   --> A              
     e( 10 - 10) =     13.93762  eV     1   --> A              
     e( 11 - 11) =     15.61772  eV     1   --> A              
     e( 12 - 12) =     15.93724  eV     1   --> A              
     e( 13 - 13) =     16.20619  eV     1   --> A              
     e( 14 - 14) =     16.64637  eV     1   --> A              

 **************************************************************************

 **************************************************************************

                    xk=(   0.09375,   0.15625,   0.28125  )

     Band symmetry, C_1 (1)     point group:

     e(  1 -  1) =    -41.68965  eV     1   --> A              
     e(  2 -  2) =    -18.29644  eV     1   --> A              
     e(  3 -  3) =    -18.16456  eV     1   --> A              
     e(  4 -  4) =    -18.11765  eV     1   --> A              
     e(  5 -  5) =      9.61140  eV     1   --> A              
     e(  6 -  6) =     11.85725  eV     1   --> A              
     e(  7 -  7) =     12.04262  eV     1   --> A              
     e(  8 -  8) =     13.27607  eV     1   --> A              
     e(  9 -  9) =     13.36629  eV     1   --> A              
     e( 10 - 10) =     13.83350  eV     1   --> A              
     e( 11 - 11) =     15.46452  eV     1   --> A              
     e( 12 - 12) =     15.86011  eV     1   --> A              
     e( 13 - 13) =     16.24134  eV     1   --> A              
     e( 14 - 14) =     16.36608  eV     1   --> A              

 **************************************************************************

 **************************************************************************

                    xk=(   0.09375,   0.15625,   0.34375  )

     Band symmetry, C_1 (1)     point group:

     e(  1 -  1) =    -41.68325  eV     1   --> A              
     e(  2 -  2) =    -18.35331  eV     1   --> A              
     e(  3 -  3) =    -18.15934  eV     1   --> A              
     e(  4 -  4) =    -18.11297  eV     1   --> A              
     e(  5 -  5) =     10.16293  eV     1   --> A              
     e(  6 -  6) =     11.95069  eV     1   --> A              
     e(  7 -  7) =     12.24703  eV     1   --> A              
     e(  8 -  8) =     13.23383  eV     1   --> A              
     e(  9 -  9) =     13.35784  eV     1   --> A              
     e( 10 - 10) =     13.72261  eV     1   --> A              
     e( 11 - 11) =     15.29712  eV     1   --> A              
     e( 12 - 12) =     15.64743  eV     1   --> A              
     e( 13 - 13) =     16.06426  eV     1   --> A              
     e( 14 - 14) =     16.51225  eV     1   --> A              

 **************************************************************************

 **************************************************************************

                    xk=(   0.09375,   0.15625,   0.40625  )

     Band symmetry, C_1 (1)     point group:

     e(  1 -  1) =    -41.67834  eV     1   --> A              
     e(  2 -  2) =    -18.39657  eV     1   --> A              
     e(  3 -  3) =    -18.15534  eV     1   --> A              
     e(  4 -  4) =    -18.10937  eV     1   --> A              
     e(  5 -  5) =     10.70797  eV     1   --> A              
     e(  6 -  6) =     11.89965  eV     1   --> A              
     e(  7 -  7) =     12.43354  eV     1   --> A              
     e(  8 -  8) =     13.17762  eV     1   --> A              
     e(  9 -  9) =     13.43672  eV     1   --> A              
     e( 10 - 10) =     13.64919  eV     1   --> A              
     e( 11 - 11) =     15.14972  eV     1   --> A              
     e( 12 - 12) =     15.39770  eV     1   --> A              
     e( 13 - 13) =     15.87931  eV     1   --> A              
     e( 14 - 14) =     16.75806  eV     1   --> A              

 **************************************************************************

 **************************************************************************

                    xk=(   0.09375,   0.15625,   0.46875  )

     Band symmetry, C_1 (1)     point group:

     e(  1 -  1) =    -41.67568  eV     1   --> A              
     e(  2 -  2) =    -18.41988  eV     1   --> A              
     e(  3 -  3) =    -18.15318  eV     1   --> A              
     e(  4 -  4) =    -18.10741  eV     1   --> A              
     e(  5 -  5) =     11.15625  eV     1   --> A              
     e(  6 -  6) =     11.70996  eV     1   --> A              
     e(  7 -  7) =     12.56275  eV     1   --> A              
     e(  8 -  8) =     13.12705  eV     1   --> A              
     e(  9 -  9) =     13.53256  eV     1   --> A              
     e( 10 - 10) =     13.62599  eV     1   --> A              
     e( 11 - 11) =     15.06738  eV     1   --> A              
     e( 12 - 12) =     15.20181  eV     1   --> A              
     e( 13 - 13) =     15.76225  eV     1   --> A              
     e( 14 - 14) =     16.96548  eV     1   --> A              

 **************************************************************************

 **************************************************************************

                    xk=(   0.09375,   0.21875,   0.21875  )

     point group C_s (m)    
     there are  2 classes
     the character table:

       E     s    
A'     1.00  1.00
A''    1.00 -1.00

     the symmetry operations in each class and the name of the first element:

     E        1
                                                                 
     s        2
                                                                 

     Band symmetry, C_s (m)     point group:

     e(  1 -  1) =    -41.69033  eV     1   --> A'             
     e(  2 -  2) =    -18.23479  eV     1   --> A'             
     e(  3 -  3) =    -18.22048  eV     1   --> A''            
     e(  4 -  4) =    -18.11784  eV     1   --> A'             
     e(  5 -  5) =      9.48493  eV     1   --> A'             
     e(  6 -  6) =     11.78753  eV     1   --> A'             
     e(  7 -  7) =     12.06163  eV     1   --> A''            
     e(  8 -  8) =     13.21199  eV     1   --> A''            
     e(  9 -  9) =     13.35323  eV     1   --> A'             
     e( 10 - 10) =     13.80499  eV     1   --> A'             
     e( 11 - 11) =     15.67229  eV     1   --> A'             
     e( 12 - 12) =     15.95642  eV     1   --> A''            
     e( 13 - 13) =     16.10522  eV     1   --> A'             
     e( 14 - 14) =     16.48522  eV     1   --> A'             

 **************************************************************************

 **************************************************************************

                    xk=(   0.09375,   0.21875,   0.28125  )

     point group C_1 (1)    
     there are  1 classes
     the character table:

       E    
A      1.00

     the symmetry operations in each class and the name of the first element:

     E        1
                                                                 

     Band symmetry, C_1 (1)     point group:

     e(  1 -  1) =    -41.68356  eV     1   --> A              
     e(  2 -  2) =    -18.28957  eV     1   --> A              
     e(  3 -  3) =    -18.22007  eV     1   --> A              
     e(  4 -  4) =    -18.11256  eV     1   --> A              
     e(  5 -  5) =      9.93091  eV     1   --> A              
     e(  6 -  6) =     11.85784  eV     1   --> A              
     e(  7 -  7) =     12.31439  eV     1   --> A              
     e(  8 -  8) =     13.12211  eV     1   --> A              
     e(  9 -  9) =     13.30948  eV     1   --> A              
     e( 10 - 10) =     13.64009  eV     1   --> A              
     e( 11 - 11) =     15.62953  eV     1   --> A              
     e( 12 - 12) =     15.82863  eV     1   --> A              
     e( 13 - 13) =     16.10949  eV     1   --> A              
     e( 14 - 14) =     16.50371  eV     1   --> A              

 **************************************************************************

 **************************************************************************

                    xk=(   0.09375,   0.21875,   0.34375  )

     Band symmetry, C_1 (1)     point group:

     e(  1 -  1) =    -41.67729  eV     1   --> A              
     e(  2 -  2) =    -18.34522  eV     1   --> A              
     e(  3 -  3) =    -18.21422  eV     1   --> A              
     e(  4 -  4) =    -18.10766  eV     1   --> A              
     e(  5 -  5) =     10.40060  eV     1   --> A              
     e(  6 -  6) =     11.87568  eV     1   --> A              
     e(  7 -  7) =     12.53134  eV     1   --> A              
     e(  8 -  8) =     13.06715  eV     1   --> A              
     e(  9 -  9) =     13.33809  eV     1   --> A              
     e( 10 - 10) =     13.50255  eV     1   --> A              
     e( 11 - 11) =     15.54134  eV     1   --> A              
     e( 12 - 12) =     15.57409  eV     1   --> A              
     e( 13 - 13) =     16.11651  eV     1   --> A              
     e( 14 - 14) =     16.72744  eV     1   --> A              

 **************************************************************************

 **************************************************************************

                    xk=(   0.09375,   0.21875,   0.40625  )

     Band symmetry, C_1 (1)     point group:

     e(  1 -  1) =    -41.67249  eV     1   --> A              
     e(  2 -  2) =    -18.38769  eV     1   --> A              
     e(  3 -  3) =    -18.20959  eV     1   --> A              
     e(  4 -  4) =    -18.10389  eV     1   --> A              
     e(  5 -  5) =     10.83425  eV     1   --> A              
     e(  6 -  6) =     11.80562  eV     1   --> A              
     e(  7 -  7) =     12.66918  eV     1   --> A              
     e(  8 -  8) =     13.04137  eV     1   --> A              
     e(  9 -  9) =     13.36632  eV     1   --> A              
     e( 10 - 10) =     13.53440  eV     1   --> A              
     e( 11 - 11) =     15.29687  eV     1   --> A              
     e( 12 - 12) =     15.49026  eV     1   --> A              
     e( 13 - 13) =     16.02791  eV     1   --> A              
     e( 14 - 14) =     17.05600  eV     1   --> A              

 **************************************************************************

 **************************************************************************

                    xk=(   0.09375,   0.21875,   0.46875  )

     Band symmetry, C_1 (1)     point group:

     e(  1 -  1) =    -41.66990  eV     1   --> A              
     e(  2 -  2) =    -18.41060  eV     1   --> A              
     e(  3 -  3) =    -18.20706  eV     1   --> A              
     e(  4 -  4) =    -18.10185  eV     1   --> A              
     e(  5 -  5) =     11.15478  eV     1   --> A              
     e(  6 -  6) =     11.67083  eV     1   --> A              
     e(  7 -  7) =     12.73273  eV     1   --> A              
     e(  8 -  8) =     13.03737  eV     1   --> A              
     e(  9 -  9) =     13.31853  eV     1   --> A              
     e( 10 - 10) =     13.71711  eV     1   --> A              
     e( 11 - 11) =     15.09805  eV     1   --> A              
     e( 12 - 12) =     15.44800  eV     1   --> A              
     e( 13 - 13) =     15.94008  eV     1   --> A              
     e( 14 - 14) =     17.35366  eV     1   --> A              

 **************************************************************************

 **************************************************************************

                    xk=(   0.09375,   0.28125,   0.28125  )

     point group C_s (m)    
     there are  2 classes
     the character table:

       E     s    
A'     1.00  1.00
A''    1.00 -1.00

     the symmetry operations in each class and the name of the first element:

     E        1
                                                                 
     s        2
                                                                 

     Band symmetry, C_s (m)     point group:

     e(  1 -  1) =    -41.67695  eV     1   --> A'             
     e(  2 -  2) =    -18.28797  eV     1   --> A'             
     e(  3 -  3) =    -18.27386  eV     1   --> A''            
     e(  4 -  4) =    -18.10702  eV     1   --> A'             
     e(  5 -  5) =     10.28781  eV     1   --> A'             
     e(  6 -  6) =     11.82957  eV     1   --> A'             
     e(  7 -  7) =     12.61979  eV     1   --> A''            
     e(  8 -  8) =     12.99925  eV     1   --> A''            
     e(  9 -  9) =     13.30715  eV     1   --> A'             
     e( 10 - 10) =     13.44370  eV     1   --> A'             
     e( 11 - 11) =     15.61392  eV     1   --> A'             
     e( 12 - 12) =     15.90193  eV     1   --> A'             
     e( 13 - 13) =     16.00686  eV     1   --> A''            
     e( 14 - 14) =     16.71722  eV     1   --> A'             

 **************************************************************************

 **************************************************************************

                    xk=(   0.09375,   0.28125,   0.34375  )

     point group C_1 (1)    
     there are  1 classes
     the character table:

       E    
A      1.00

     the symmetry operations in each class and the name of the first element:

     E        1
                                                                 

     Band symmetry, C_1 (1)     point group:

     e(  1 -  1) =    -41.67084  eV     1   --> A              
     e(  2 -  2) =    -18.33659  eV     1   --> A              
     e(  3 -  3) =    -18.27303  eV     1   --> A              
     e(  4 -  4) =    -18.10189  eV     1   --> A              
     e(  5 -  5) =     10.62684  eV     1   --> A              
     e(  6 -  6) =     11.76139  eV     1   --> A              
     e(  7 -  7) =     12.87800  eV     1   --> A              
     e(  8 -  8) =     12.92429  eV     1   --> A              
     e(  9 -  9) =     13.28445  eV     1   --> A              
     e( 10 - 10) =     13.43159  eV     1   --> A              
     e( 11 - 11) =     15.48700  eV     1   --> A              
     e( 12 - 12) =     15.83546  eV     1   --> A              
     e( 13 - 13) =     16.09059  eV     1   --> A              
     e( 14 - 14) =     16.99681  eV     1   --> A              

 **************************************************************************

 **************************************************************************

                    xk=(   0.09375,   0.28125,   0.40625  )

     Band symmetry, C_1 (1)     point group:

     e(  1 -  1) =    -41.66616  eV     1   --> A              
     e(  2 -  2) =    -18.37809  eV     1   --> A              
     e(  3 -  3) =    -18.26785  eV     1   --> A              
     e(  4 -  4) =    -18.09796  eV     1   --> A              
     e(  5 -  5) =     10.89998  eV     1   --> A              
     e(  6 -  6) =     11.66088  eV     1   --> A              
     e(  7 -  7) =     12.87863  eV     1   --> A              
     e(  8 -  8) =     12.97521  eV     1   --> A              
     e(  9 -  9) =     13.23776  eV     1   --> A              
     e( 10 - 10) =     13.72572  eV     1   --> A              
     e( 11 - 11) =     15.28564  eV     1   --> A              
     e( 12 - 12) =     15.80158  eV     1   --> A              
     e( 13 - 13) =     16.10090  eV     1   --> A              
     e( 14 - 14) =     17.34619  eV     1   --> A              

 **************************************************************************

 **************************************************************************

                    xk=(   0.09375,   0.28125,   0.46875  )

     Band symmetry, C_1 (1)     point group:

     e(  1 -  1) =    -41.66363  eV     1   --> A              
     e(  2 -  2) =    -18.40055  eV     1   --> A              
     e(  3 -  3) =    -18.26495  eV     1   --> A              
     e(  4 -  4) =    -18.09582  eV     1   --> A              
     e(  5 -  5) =     11.06971  eV     1   --> A              
     e(  6 -  6) =     11.56809  eV     1   --> A              
     e(  7 -  7) =     12.88655  eV     1   --> A              
     e(  8 -  8) =     12.93064  eV     1   --> A              
     e(  9 -  9) =     13.26267  eV     1   --> A              
     e( 10 - 10) =     14.05651  eV     1   --> A              
     e( 11 - 11) =     15.05297  eV     1   --> A              
     e( 12 - 12) =     15.81543  eV     1   --> A              
     e( 13 - 13) =     16.04919  eV     1   --> A              
     e( 14 - 14) =     17.52139  eV     1   --> A              

 **************************************************************************

 **************************************************************************

[...]
     e(  9 -  9) =     13.01761  eV     1   --> A              
     e( 10 - 10) =     13.33947  eV     1   --> A              
     e( 11 - 11) =     15.18180  eV     1   --> A              
     e( 12 - 12) =     15.31232  eV     1   --> A              
     e( 13 - 13) =     16.88539  eV     1   --> A              
     e( 14 - 14) =     17.47501  eV     1   --> A              

 **************************************************************************

 **************************************************************************

                    xk=(   0.28125,   0.34375,   0.46875  )

     Band symmetry, C_1 (1)     point group:

     e(  1 -  1) =    -41.64076  eV     1   --> A              
     e(  2 -  2) =    -18.37463  eV     1   --> A              
     e(  3 -  3) =    -18.30397  eV     1   --> A              
     e(  4 -  4) =    -18.24530  eV     1   --> A              
     e(  5 -  5) =     11.87274  eV     1   --> A              
     e(  6 -  6) =     12.11446  eV     1   --> A              
     e(  7 -  7) =     12.61006  eV     1   --> A              
     e(  8 -  8) =     12.65357  eV     1   --> A              
     e(  9 -  9) =     13.13910  eV     1   --> A              
     e( 10 - 10) =     13.67049  eV     1   --> A              
     e( 11 - 11) =     14.93121  eV     1   --> A              
     e( 12 - 12) =     15.26256  eV     1   --> A              
     e( 13 - 13) =     16.89157  eV     1   --> A              
     e( 14 - 14) =     17.64772  eV     1   --> A              

 **************************************************************************

 **************************************************************************

                    xk=(   0.28125,   0.40625,   0.40625  )

     point group C_s (m)    
     there are  2 classes
     the character table:

       E     s    
A'     1.00  1.00
A''    1.00 -1.00

     the symmetry operations in each class and the name of the first element:

     E        1
                                                                 
     s        2
                                                                 

     Band symmetry, C_s (m)     point group:

     e(  1 -  1) =    -41.63867  eV     1   --> A'             
     e(  2 -  2) =    -18.34830  eV     1   --> A'             
     e(  3 -  3) =    -18.34660  eV     1   --> A''            
     e(  4 -  4) =    -18.24358  eV     1   --> A'             
     e(  5 -  5) =     11.87242  eV     1   --> A'             
     e(  6 -  6) =     12.12580  eV     1   --> A'             
     e(  7 -  7) =     12.56220  eV     1   --> A''            
     e(  8 -  8) =     12.65749  eV     1   --> A'             
     e(  9 -  9) =     13.37390  eV     1   --> A'             
     e( 10 - 10) =     13.47171  eV     1   --> A''            
     e( 11 - 11) =     15.06222  eV     1   --> A''            
     e( 12 - 12) =     15.16062  eV     1   --> A'             
     e( 13 - 13) =     17.02506  eV     1   --> A'             
     e( 14 - 14) =     17.67204  eV     1   --> A''            

 **************************************************************************

 **************************************************************************

                    xk=(   0.28125,   0.40625,   0.46875  )

     point group C_1 (1)    
     there are  1 classes
     the character table:

       E    
A      1.00

     the symmetry operations in each class and the name of the first element:

     E        1
                                                                 

     Band symmetry, C_1 (1)     point group:

     e(  1 -  1) =    -41.63620  eV     1   --> A              
     e(  2 -  2) =    -18.36946  eV     1   --> A              
     e(  3 -  3) =    -18.34470  eV     1   --> A              
     e(  4 -  4) =    -18.24138  eV     1   --> A              
     e(  5 -  5) =     11.83029  eV     1   --> A              
     e(  6 -  6) =     12.09777  eV     1   --> A              
     e(  7 -  7) =     12.55403  eV     1   --> A              
     e(  8 -  8) =     12.59300  eV     1   --> A              
     e(  9 -  9) =     13.50670  eV     1   --> A              
     e( 10 - 10) =     13.78022  eV     1   --> A              
     e( 11 - 11) =     14.84916  eV     1   --> A              
     e( 12 - 12) =     15.11405  eV     1   --> A              
     e( 13 - 13) =     17.07189  eV     1   --> A              
     e( 14 - 14) =     17.83280  eV     1   --> A              

 **************************************************************************

 **************************************************************************

                    xk=(   0.28125,   0.46875,   0.46875  )

     point group C_s (m)    
     there are  2 classes
     the character table:

       E     s    
A'     1.00  1.00
A''    1.00 -1.00

     the symmetry operations in each class and the name of the first element:

     E        1
                                                                 
     s        2
                                                                 

     Band symmetry, C_s (m)     point group:

     e(  1 -  1) =    -41.63372  eV     1   --> A'             
     e(  2 -  2) =    -18.36677  eV     1   --> A'             
     e(  3 -  3) =    -18.36656  eV     1   --> A''            
     e(  4 -  4) =    -18.23926  eV     1   --> A'             
     e(  5 -  5) =     11.79278  eV     1   --> A'             
     e(  6 -  6) =     12.08275  eV     1   --> A'             
     e(  7 -  7) =     12.51848  eV     1   --> A''            
     e(  8 -  8) =     12.53447  eV     1   --> A'             
     e(  9 -  9) =     13.85945  eV     1   -->   ?
     e( 10 - 10) =     13.86398  eV     1   -->   ?
     e( 11 - 11) =     14.70655  eV     1   --> A''            
     e( 12 - 12) =     15.01949  eV     1   --> A'             
     e( 13 - 13) =     17.14313  eV     1   --> A'             
     e( 14 - 14) =     17.99066  eV     1   --> A''            

 **************************************************************************

 **************************************************************************

                    xk=(   0.34375,   0.34375,   0.34375  )

     point group C_3v (3m)  
     there are  3 classes
     the character table:

       E     2C3   3s_v 
A_1    1.00  1.00  1.00
A_2    1.00  1.00 -1.00
E      2.00 -1.00  0.00

     the symmetry operations in each class and the name of the first element:

     E        1
                                                                 
     2C3      2    3
                                                                 
     3s_v     4    5    6
                                                                 

     Band symmetry, C_3v (3m)   point group:

     e(  1 -  1) =    -41.64184  eV     1   --> A_1  L_1       
     e(  2 -  2) =    -18.30743  eV     1   --> A_1  L_1       
     e(  3 -  4) =    -18.30495  eV     2   --> E    L_3       
     e(  5 -  5) =     12.18542  eV     1   --> A_1  L_1       
     e(  6 -  6) =     12.35769  eV     1   --> A_1  L_1       
     e(  7 -  8) =     12.61638  eV     2   --> E    L_3       
     e(  9 - 10) =     12.92246  eV     2   --> E    L_3       
     e( 11 - 12) =     15.27733  eV     2   --> E    L_3       
     e( 13 - 14) =     17.20498  eV     2   --> E    L_3       

 **************************************************************************

 **************************************************************************

                    xk=(   0.34375,   0.34375,   0.40625  )

     point group C_s (m)    
     there are  2 classes
     the character table:

       E     s    
A'     1.00  1.00
A''    1.00 -1.00

     the symmetry operations in each class and the name of the first element:

     E        1
                                                                 
     s        2
                                                                 

     Band symmetry, C_s (m)     point group:

     e(  1 -  1) =    -41.63724  eV     1   --> A'             
     e(  2 -  2) =    -18.34673  eV     1   --> A'             
     e(  3 -  4) =    -18.30140  eV     2   --> A'             
     e(  3 -  4) =    -18.30140  eV     2   --> A''            
     e(  5 -  5) =     12.14762  eV     1   --> A'             
     e(  6 -  6) =     12.33262  eV     1   --> A'             
     e(  7 -  7) =     12.60979  eV     1   --> A''            
     e(  8 -  8) =     12.80760  eV     1   --> A''            
     e(  9 -  9) =     12.82642  eV     1   --> A'             
     e( 10 - 10) =     13.21025  eV     1   --> A'             
     e( 11 - 11) =     15.07039  eV     1   --> A'             
     e( 12 - 12) =     15.18036  eV     1   --> A''            
     e( 13 - 13) =     17.20568  eV     1   --> A''            
     e( 14 - 14) =     17.52492  eV     1   --> A'             

 **************************************************************************

 **************************************************************************

                    xk=(   0.34375,   0.34375,   0.46875  )

     Band symmetry, C_s (m)     point group:

     e(  1 -  1) =    -41.63476  eV     1   --> A'             
     e(  2 -  2) =    -18.36879  eV     1   --> A'             
     e(  3 -  3) =    -18.29948  eV     1   --> A''            
     e(  4 -  4) =    -18.29855  eV     1   --> A'             
     e(  5 -  5) =     12.11811  eV     1   --> A'             
     e(  6 -  6) =     12.24148  eV     1   --> A'             
     e(  7 -  7) =     12.63565  eV     1   --> A''            
     e(  8 -  8) =     12.71415  eV     1   --> A''            
     e(  9 -  9) =     12.99026  eV     1   --> A'             
     e( 10 - 10) =     13.50352  eV     1   --> A'             
     e( 11 - 11) =     14.86161  eV     1   --> A'             
     e( 12 - 12) =     15.13389  eV     1   --> A''            
     e( 13 - 13) =     17.20845  eV     1   --> A''            
     e( 14 - 14) =     17.71792  eV     1   --> A'             

 **************************************************************************

 **************************************************************************

                    xk=(   0.34375,   0.40625,   0.40625  )

     Band symmetry, C_s (m)     point group:

     e(  1 -  1) =    -41.63264  eV     1   --> A'             
     e(  2 -  2) =    -18.34264  eV     1   --> A'             
     e(  3 -  3) =    -18.34191  eV     1   --> A''            
     e(  4 -  4) =    -18.29738  eV     1   --> A'             
     e(  5 -  5) =     12.17106  eV     1   --> A'             
     e(  6 -  6) =     12.39462  eV     1   --> A'             
     e(  7 -  7) =     12.55439  eV     1   --> A''            
     e(  8 -  8) =     12.75779  eV     1   --> A'             
     e(  9 -  9) =     13.08011  eV     1   --> A'             
     e( 10 - 10) =     13.23709  eV     1   --> A''            
     e( 11 - 11) =     14.94884  eV     1   --> A''            
     e( 12 - 12) =     15.04768  eV     1   --> A'             
     e( 13 - 13) =     17.38047  eV     1   --> A'             
     e( 14 - 14) =     17.69142  eV     1   --> A''            

 **************************************************************************

 **************************************************************************

                    xk=(   0.34375,   0.40625,   0.46875  )

     point group C_1 (1)    
     there are  1 classes
     the character table:

       E    
A      1.00

     the symmetry operations in each class and the name of the first element:

     E        1
                                                                 

     Band symmetry, C_1 (1)     point group:

     e(  1 -  1) =    -41.63016  eV     1   --> A              
     e(  2 -  2) =    -18.36431  eV     1   --> A              
     e(  3 -  3) =    -18.33987  eV     1   --> A              
     e(  4 -  4) =    -18.29521  eV     1   --> A              
     e(  5 -  5) =     12.19276  eV     1   --> A              
     e(  6 -  6) =     12.30871  eV     1   --> A              
     e(  7 -  7) =     12.58296  eV     1   --> A              
     e(  8 -  8) =     12.66878  eV     1   --> A              
     e(  9 -  9) =     13.20363  eV     1   --> A              
     e( 10 - 10) =     13.46596  eV     1   --> A              
     e( 11 - 11) =     14.78639  eV     1   --> A              
     e( 12 - 12) =     14.99855  eV     1   --> A              
     e( 13 - 13) =     17.42033  eV     1   --> A              
     e( 14 - 14) =     17.86139  eV     1   --> A              

 **************************************************************************

 **************************************************************************

                    xk=(   0.34375,   0.46875,   0.46875  )

     point group C_s (m)    
     there are  2 classes
     the character table:

       E     s    
A'     1.00  1.00
A''    1.00 -1.00

     the symmetry operations in each class and the name of the first element:

     E        1
                                                                 
     s        2
                                                                 

     Band symmetry, C_s (m)     point group:

     e(  1 -  1) =    -41.62766  eV     1   --> A'             
     e(  2 -  3) =    -18.36193  eV     2   --> A'             
     e(  2 -  3) =    -18.36193  eV     2   --> A''            
     e(  4 -  4) =    -18.29315  eV     1   --> A'             
     e(  5 -  5) =     12.22672  eV     1   --> A'             
     e(  6 -  6) =     12.33154  eV     1   --> A'             
     e(  7 -  7) =     12.52646  eV     1   --> A''            
     e(  8 -  8) =     12.57140  eV     1   --> A'             
     e(  9 -  9) =     13.47668  eV     1   --> A'             
     e( 10 - 10) =     13.49149  eV     1   --> A''            
     e( 11 - 11) =     14.68214  eV     1   --> A''            
     e( 12 - 12) =     14.92162  eV     1   --> A'             
     e( 13 - 13) =     17.49498  eV     1   --> A'             
     e( 14 - 14) =     18.00689  eV     1   --> A''            

 **************************************************************************

 **************************************************************************

                    xk=(   0.40625,   0.40625,   0.40625  )

     point group C_3v (3m)  
     there are  3 classes
     the character table:

       E     2C3   3s_v 
A_1    1.00  1.00  1.00
A_2    1.00  1.00 -1.00
E      2.00 -1.00  0.00

     the symmetry operations in each class and the name of the first element:

     E        1
                                                                 
     2C3      2    3
                                                                 
     3s_v     4    5    6
                                                                 

     Band symmetry, C_3v (3m)   point group:

     e(  1 -  1) =    -41.62803  eV     1   --> A_1  L_1       
     e(  2 -  4) =    -18.33831  eV     3   --> A_1  L_1       
     e(  2 -  4) =    -18.33831  eV     3   --> E    L_3       
     e(  5 -  5) =     12.26666  eV     1   --> A_1  L_1       
     e(  6 -  7) =     12.57916  eV     2   --> E    L_3       
     e(  8 -  8) =     12.92450  eV     1   --> A_1  L_1       
     e(  9 - 10) =     13.02187  eV     2   --> E    L_3       
     e( 11 - 12) =     14.88917  eV     2   --> E    L_3       
     e( 13 - 14) =     17.70769  eV     2   --> E    L_3       

 **************************************************************************

 **************************************************************************

                    xk=(   0.40625,   0.40625,   0.46875  )

     point group C_s (m)    
     there are  2 classes
     the character table:

       E     s    
A'     1.00  1.00
A''    1.00 -1.00

     the symmetry operations in each class and the name of the first element:

     E        1
                                                                 
     s        2
                                                                 

     Band symmetry, C_s (m)     point group:

     e(  1 -  1) =    -41.62553  eV     1   --> A'             
     e(  2 -  2) =    -18.36036  eV     1   --> A'             
     e(  3 -  3) =    -18.33636  eV     1   --> A''            
     e(  4 -  4) =    -18.33595  eV     1   --> A'             
     e(  5 -  5) =     12.35071  eV     1   --> A'             
     e(  6 -  6) =     12.46954  eV     1   --> A'             
     e(  7 -  7) =     12.63062  eV     1   --> A''            
     e(  8 -  8) =     12.86686  eV     1   --> A''            
     e(  9 -  9) =     12.99248  eV     1   --> A'             
     e( 10 - 10) =     13.25910  eV     1   --> A'             
     e( 11 - 11) =     14.74314  eV     1   --> A'             
     e( 12 - 12) =     14.86390  eV     1   --> A''            
     e( 13 - 13) =     17.71683  eV     1   --> A''            
     e( 14 - 14) =     17.91023  eV     1   --> A'             

 **************************************************************************

 **************************************************************************

                    xk=(   0.40625,   0.46875,   0.46875  )

     Band symmetry, C_s (m)     point group:

     e(  1 -  1) =    -41.62303  eV     1   --> A'             
     e(  2 -  3) =    -18.35823  eV     2   --> A'             
     e(  2 -  3) =    -18.35823  eV     2   --> A''            
     e(  4 -  4) =    -18.33415  eV     1   --> A'             
     e(  5 -  5) =     12.45472  eV     1   --> A'             
     e(  6 -  6) =     12.56872  eV     1   -->   ?
     e(  7 -  7) =     12.57379  eV     1   -->   ?
     e(  8 -  8) =     12.74761  eV     1   --> A'             
     e(  9 -  9) =     13.17860  eV     1   --> A'             
     e( 10 - 10) =     13.18935  eV     1   --> A''            
     e( 11 - 11) =     14.67511  eV     1   --> A''            
     e( 12 - 12) =     14.78894  eV     1   --> A'             
     e( 13 - 13) =     17.82167  eV     1   --> A'             
     e( 14 - 14) =     18.01899  eV     1   --> A''            

 **************************************************************************

 **************************************************************************

                    xk=(   0.46875,   0.46875,   0.46875  )

     point group C_3v (3m)  
     there are  3 classes
     the character table:

       E     2C3   3s_v 
A_1    1.00  1.00  1.00
A_2    1.00  1.00 -1.00
E      2.00 -1.00  0.00

     the symmetry operations in each class and the name of the first element:

     E        1
                                                                 
     2C3      2    3
                                                                 
     3s_v     4    5    6
                                                                 

     Band symmetry, C_3v (3m)   point group:

     e(  1 -  1) =    -41.62053  eV     1   --> A_1  L_1       
     e(  2 -  4) =    -18.35627  eV     3   --> A_1  L_1       
     e(  2 -  4) =    -18.35627  eV     3   --> E    L_3       
     e(  5 -  5) =     12.56333  eV     1   --> A_1  L_1       
     e(  6 -  7) =     12.63366  eV     2   --> E    L_3       
     e(  8 -  9) =     12.98962  eV     2   --> E    L_3       
     e( 10 - 10) =     13.01165  eV     1   --> A_1  L_1       
     e( 11 - 12) =     14.67330  eV     2   --> E    L_3       
     e( 13 - 14) =     18.02551  eV     2   --> E    L_3       

 **************************************************************************

     BANDS        :     5.63s CPU         3.80s WALL


   This run was terminated on:  21: 9:45  21Jun2019            

=------------------------------------------------------------------------------=
   JOB DONE.
=------------------------------------------------------------------------------=
