
     Program PWSCF v.6.3 starts on 21Jun2019 at 17:33:50 

     This program is part of the open-source Quantum ESPRESSO suite
     for quantum simulation of materials; please cite
         "P. Giannozzi et al., J. Phys.:Condens. Matter 21 395502 (2009);
         "P. Giannozzi et al., J. Phys.:Condens. Matter 29 465901 (2017);
          URL http://www.quantum-espresso.org", 
     in publications or presentations arising from this work. More details at
     http://www.quantum-espresso.org/quote

     Parallel version (MPI & OpenMP), running on       2 processor cores
     Number of MPI processes:                 1
     Threads/MPI process:                     2

     MPI processes distributed on     1 nodes
     Reading input from /h     Reading input from standard input

 %%%%%%%%%%%%%%%%%%%%%%%%%%%%%%%%%%%%%%%%%%%%%%%%%%%%%%%%%%%%%%%%%%%%%%%%%%%%%%
     Error in routine  read_namelists (2):
      could not find namelist &control
 %%%%%%%%%%%%%%%%%%%%%%%%%%%%%%%%%%%%%%%%%%%%%%%%%%%%%%%%%%%%%%%%%%%%%%%%%%%%%%

     stopping ...
--------------------------------------------------------------------------
MPI_ABORT was invoked on rank 0 in communicator MPI_COMM_WORLD 
with errorcode 1.

NOTE: invoking MPI_ABORT causes Open MPI to kill all MPI processes.
You may or may not see output from other processes, depending on
exactly when Open MPI kills them.
--------------------------------------------------------------------------
   Sum         997     497    161                23703     8385    1503



     bravais-lattice index     =            1
     lattice parameter (alat)  =       5.6000  a.u.
     unit-cell volume          =     175.6160 (a.u.)^3
     number of atoms/cell      =            2
     number of atomic types    =            2
     number of electrons       =        19.50
     number of Kohn-Sham states=           14
     kinetic-energy cutoff     =      50.0000  Ry
     charge density cutoff     =     400.0000  Ry
     convergence threshold     =      1.0E-09
     mixing beta               =       0.7000
     number of iterations used =            8  plain     mixing
     Exchange-correlation      = SLA PZ NOGX NOGC ( 1  1  0  0 0 0)
     nstep                     =           50


     celldm(1)=   5.600000  celldm(2)=   0.000000  celldm(3)=   0.000000
     celldm(4)=   0.000000  celldm(5)=   0.000000  celldm(6)=   0.000000

     crystal axes: (cart. coord. in units of alat)
               a(1) = (   1.000000   0.000000   0.000000 )  
               a(2) = (   0.000000   1.000000   0.000000 )  
               a(3) = (   0.000000   0.000000   1.000000 )  

     reciprocal axes: (cart. coord. in units 2 pi/alat)
               b(1) = (  1.000000  0.000000  0.000000 )  
               b(2) = (  0.000000  1.000000  0.000000 )  
               b(3) = (  0.000000  0.000000  1.000000 )  


     PseudoPot. # 1 for Fe read from file:
     /shared/tools/qe/qe-6.3/pseudo/Fe.pz-nd-rrkjus.UPF
     MD5 check sum: b5eb2b1fd79b39c9eac5f7a31bc313a7
     Pseudo is Ultrasoft + core correction, Zval =  8.0
     Generated by new atomic code, or converted to UPF format
     Using radial grid of  957 points,  6 beta functions with: 
                l(1) =   0
                l(2) =   0
                l(3) =   1
                l(4) =   1
                l(5) =   2
                l(6) =   2
     Q(r) pseudized with 0 coefficients 


     PseudoPot. # 2 for Ti read from file:
     /shared/tools/qe/qe-6.3/pseudo/Ti.pz-sp-van_ak.UPF
     MD5 check sum: 93c5ef60b250b0ab110b997ad8a4342c
     Pseudo is Ultrasoft, Zval = 12.0
     Generated by new atomic code, or converted to UPF format
     Using radial grid of  851 points,  6 beta functions with: 
                l(1) =   0
                l(2) =   0
                l(3) =   1
                l(4) =   1
                l(5) =   2
                l(6) =   2
     Q(r) pseudized with  8 coefficients,  rinner =    1.000   1.000   1.000
                                                       1.000   1.000

     atomic species   valence    mass     pseudopotential
        Fe             8.00    55.84500     Fe( 1.00)
        Ti            12.00    47.86700     Ti( 1.00)

     48 Sym. Ops., with inversion, found


                                    s                        frac. trans.

      isym =  1     identity                                     

 cryst.   s( 1) = (     1          0          0      )
                  (     0          1          0      )
                  (     0          0          1      )

 cart.    s( 1) = (  1.0000000  0.0000000  0.0000000 )
                  (  0.0000000  1.0000000  0.0000000 )
                  (  0.0000000  0.0000000  1.0000000 )


      isym =  2     180 deg rotation - cart. axis [0,0,1]        

 cryst.   s( 2) = (    -1          0          0      )
                  (     0         -1          0      )
                  (     0          0          1      )

 cart.    s( 2) = ( -1.0000000  0.0000000  0.0000000 )
                  (  0.0000000 -1.0000000  0.0000000 )
                  (  0.0000000  0.0000000  1.0000000 )


      isym =  3     180 deg rotation - cart. axis [0,1,0]        

 cryst.   s( 3) = (    -1          0          0      )
                  (     0          1          0      )
                  (     0          0         -1      )

 cart.    s( 3) = ( -1.0000000  0.0000000  0.0000000 )
                  (  0.0000000  1.0000000  0.0000000 )
                  (  0.0000000  0.0000000 -1.0000000 )


      isym =  4     180 deg rotation - cart. axis [1,0,0]        

 cryst.   s( 4) = (     1          0          0      )
                  (     0         -1          0      )
                  (     0          0         -1      )

 cart.    s( 4) = (  1.0000000  0.0000000  0.0000000 )
                  (  0.0000000 -1.0000000  0.0000000 )
                  (  0.0000000  0.0000000 -1.0000000 )


      isym =  5     180 deg rotation - cart. axis [1,1,0]        

 cryst.   s( 5) = (     0          1          0      )
                  (     1          0          0      )
                  (     0          0         -1      )

 cart.    s( 5) = (  0.0000000  1.0000000  0.0000000 )
                  (  1.0000000  0.0000000  0.0000000 )
                  (  0.0000000  0.0000000 -1.0000000 )


      isym =  6     180 deg rotation - cart. axis [1,-1,0]       

 cryst.   s( 6) = (     0         -1          0      )
                  (    -1          0          0      )
                  (     0          0         -1      )

 cart.    s( 6) = (  0.0000000 -1.0000000  0.0000000 )
                  ( -1.0000000  0.0000000  0.0000000 )
                  (  0.0000000  0.0000000 -1.0000000 )


      isym =  7      90 deg rotation - cart. axis [0,0,-1]       

 cryst.   s( 7) = (     0         -1          0      )
                  (     1          0          0      )
                  (     0          0          1      )

 cart.    s( 7) = (  0.0000000  1.0000000  0.0000000 )
                  ( -1.0000000  0.0000000  0.0000000 )
                  (  0.0000000  0.0000000  1.0000000 )


      isym =  8      90 deg rotation - cart. axis [0,0,1]        

 cryst.   s( 8) = (     0          1          0      )
                  (    -1          0          0      )
                  (     0          0          1      )

 cart.    s( 8) = (  0.0000000 -1.0000000  0.0000000 )
                  (  1.0000000  0.0000000  0.0000000 )
                  (  0.0000000  0.0000000  1.0000000 )


      isym =  9     180 deg rotation - cart. axis [1,0,1]        

 cryst.   s( 9) = (     0          0          1      )
                  (     0         -1          0      )
                  (     1          0          0      )

 cart.    s( 9) = (  0.0000000  0.0000000  1.0000000 )
                  (  0.0000000 -1.0000000  0.0000000 )
                  (  1.0000000  0.0000000  0.0000000 )


      isym = 10     180 deg rotation - cart. axis [-1,0,1]       

 cryst.   s(10) = (     0          0         -1      )
                  (     0         -1          0      )
                  (    -1          0          0      )

 cart.    s(10) = (  0.0000000  0.0000000 -1.0000000 )
                  (  0.0000000 -1.0000000  0.0000000 )
                  ( -1.0000000  0.0000000  0.0000000 )


      isym = 11      90 deg rotation - cart. axis [0,1,0]        

 cryst.   s(11) = (     0          0         -1      )
                  (     0          1          0      )
                  (     1          0          0      )

 cart.    s(11) = (  0.0000000  0.0000000  1.0000000 )
                  (  0.0000000  1.0000000  0.0000000 )
                  ( -1.0000000  0.0000000  0.0000000 )


      isym = 12      90 deg rotation - cart. axis [0,-1,0]       

 cryst.   s(12) = (     0          0          1      )
                  (     0          1          0      )
                  (    -1          0          0      )

 cart.    s(12) = (  0.0000000  0.0000000 -1.0000000 )
                  (  0.0000000  1.0000000  0.0000000 )
                  (  1.0000000  0.0000000  0.0000000 )


      isym = 13     180 deg rotation - cart. axis [0,1,1]        

 cryst.   s(13) = (    -1          0          0      )
                  (     0          0          1      )
                  (     0          1          0      )

 cart.    s(13) = ( -1.0000000  0.0000000  0.0000000 )
                  (  0.0000000  0.0000000  1.0000000 )
                  (  0.0000000  1.0000000  0.0000000 )


      isym = 14     180 deg rotation - cart. axis [0,1,-1]       

 cryst.   s(14) = (    -1          0          0      )
                  (     0          0         -1      )
                  (     0         -1          0      )

 cart.    s(14) = ( -1.0000000  0.0000000  0.0000000 )
                  (  0.0000000  0.0000000 -1.0000000 )
                  (  0.0000000 -1.0000000  0.0000000 )


      isym = 15      90 deg rotation - cart. axis [-1,0,0]       

 cryst.   s(15) = (     1          0          0      )
                  (     0          0         -1      )
                  (     0          1          0      )

 cart.    s(15) = (  1.0000000  0.0000000  0.0000000 )
                  (  0.0000000  0.0000000  1.0000000 )
                  (  0.0000000 -1.0000000  0.0000000 )


      isym = 16      90 deg rotation - cart. axis [1,0,0]        

 cryst.   s(16) = (     1          0          0      )
                  (     0          0          1      )
                  (     0         -1          0      )

 cart.    s(16) = (  1.0000000  0.0000000  0.0000000 )
                  (  0.0000000  0.0000000 -1.0000000 )
                  (  0.0000000  1.0000000  0.0000000 )


      isym = 17     120 deg rotation - cart. axis [-1,-1,-1]     

 cryst.   s(17) = (     0          0          1      )
                  (     1          0          0      )
                  (     0          1          0      )

 cart.    s(17) = (  0.0000000  1.0000000  0.0000000 )
                  (  0.0000000  0.0000000  1.0000000 )
                  (  1.0000000  0.0000000  0.0000000 )


      isym = 18     120 deg rotation - cart. axis [-1,1,1]       

 cryst.   s(18) = (     0          0         -1      )
                  (    -1          0          0      )
                  (     0          1          0      )

 cart.    s(18) = (  0.0000000 -1.0000000  0.0000000 )
                  (  0.0000000  0.0000000  1.0000000 )
                  ( -1.0000000  0.0000000  0.0000000 )


      isym = 19     120 deg rotation - cart. axis [1,1,-1]       

 cryst.   s(19) = (     0          0         -1      )
                  (     1          0          0      )
                  (     0         -1          0      )

 cart.    s(19) = (  0.0000000  1.0000000  0.0000000 )
                  (  0.0000000  0.0000000 -1.0000000 )
                  ( -1.0000000  0.0000000  0.0000000 )


      isym = 20     120 deg rotation - cart. axis [1,-1,1]       

 cryst.   s(20) = (     0          0          1      )
                  (    -1          0          0      )
                  (     0         -1          0      )

 cart.    s(20) = (  0.0000000 -1.0000000  0.0000000 )
                  (  0.0000000  0.0000000 -1.0000000 )
                  (  1.0000000  0.0000000  0.0000000 )


      isym = 21     120 deg rotation - cart. axis [1,1,1]        

 cryst.   s(21) = (     0          1          0      )
                  (     0          0          1      )
                  (     1          0          0      )

 cart.    s(21) = (  0.0000000  0.0000000  1.0000000 )
                  (  1.0000000  0.0000000  0.0000000 )
                  (  0.0000000  1.0000000  0.0000000 )


      isym = 22     120 deg rotation - cart. axis [-1,1,-1]      

 cryst.   s(22) = (     0         -1          0      )
                  (     0          0         -1      )
                  (     1          0          0      )

 cart.    s(22) = (  0.0000000  0.0000000  1.0000000 )
                  ( -1.0000000  0.0000000  0.0000000 )
                  (  0.0000000 -1.0000000  0.0000000 )


      isym = 23     120 deg rotation - cart. axis [1,-1,-1]      

 cryst.   s(23) = (     0         -1          0      )
                  (     0          0          1      )
                  (    -1          0          0      )

 cart.    s(23) = (  0.0000000  0.0000000 -1.0000000 )
                  ( -1.0000000  0.0000000  0.0000000 )
                  (  0.0000000  1.0000000  0.0000000 )


      isym = 24     120 deg rotation - cart. axis [-1,-1,1]      

 cryst.   s(24) = (     0          1          0      )
                  (     0          0         -1      )
                  (    -1          0          0      )

 cart.    s(24) = (  0.0000000  0.0000000 -1.0000000 )
                  (  1.0000000  0.0000000  0.0000000 )
                  (  0.0000000 -1.0000000  0.0000000 )


      isym = 25     inversion                                    

 cryst.   s(25) = (    -1          0          0      )
                  (     0         -1          0      )
                  (     0          0         -1      )

 cart.    s(25) = ( -1.0000000  0.0000000  0.0000000 )
                  (  0.0000000 -1.0000000  0.0000000 )
                  (  0.0000000  0.0000000 -1.0000000 )


      isym = 26     inv. 180 deg rotation - cart. axis [0,0,1]   

 cryst.   s(26) = (     1          0          0      )
                  (     0          1          0      )
                  (     0          0         -1      )

 cart.    s(26) = (  1.0000000  0.0000000  0.0000000 )
                  (  0.0000000  1.0000000  0.0000000 )
                  (  0.0000000  0.0000000 -1.0000000 )


      isym = 27     inv. 180 deg rotation - cart. axis [0,1,0]   

 cryst.   s(27) = (     1          0          0      )
                  (     0         -1          0      )
                  (     0          0          1      )

 cart.    s(27) = (  1.0000000  0.0000000  0.0000000 )
                  (  0.0000000 -1.0000000  0.0000000 )
                  (  0.0000000  0.0000000  1.0000000 )


      isym = 28     inv. 180 deg rotation - cart. axis [1,0,0]   

 cryst.   s(28) = (    -1          0          0      )
                  (     0          1          0      )
                  (     0          0          1      )

 cart.    s(28) = ( -1.0000000  0.0000000  0.0000000 )
                  (  0.0000000  1.0000000  0.0000000 )
                  (  0.0000000  0.0000000  1.0000000 )


      isym = 29     inv. 180 deg rotation - cart. axis [1,1,0]   

 cryst.   s(29) = (     0         -1          0      )
                  (    -1          0          0      )
                  (     0          0          1      )

 cart.    s(29) = (  0.0000000 -1.0000000  0.0000000 )
                  ( -1.0000000  0.0000000  0.0000000 )
                  (  0.0000000  0.0000000  1.0000000 )


      isym = 30     inv. 180 deg rotation - cart. axis [1,-1,0]  

 cryst.   s(30) = (     0          1          0      )
                  (     1          0          0      )
                  (     0          0          1      )

 cart.    s(30) = (  0.0000000  1.0000000  0.0000000 )
                  (  1.0000000  0.0000000  0.0000000 )
                  (  0.0000000  0.0000000  1.0000000 )


      isym = 31     inv.  90 deg rotation - cart. axis [0,0,-1]  

 cryst.   s(31) = (     0          1          0      )
                  (    -1          0          0      )
                  (     0          0         -1      )

 cart.    s(31) = (  0.0000000 -1.0000000  0.0000000 )
                  (  1.0000000  0.0000000  0.0000000 )
                  (  0.0000000  0.0000000 -1.0000000 )


      isym = 32     inv.  90 deg rotation - cart. axis [0,0,1]   

 cryst.   s(32) = (     0         -1          0      )
                  (     1          0          0      )
                  (     0          0         -1      )

 cart.    s(32) = (  0.0000000  1.0000000  0.0000000 )
                  ( -1.0000000  0.0000000  0.0000000 )
                  (  0.0000000  0.0000000 -1.0000000 )


      isym = 33     inv. 180 deg rotation - cart. axis [1,0,1]   

 cryst.   s(33) = (     0          0         -1      )
                  (     0          1          0      )
                  (    -1          0          0      )

 cart.    s(33) = (  0.0000000  0.0000000 -1.0000000 )
                  (  0.0000000  1.0000000  0.0000000 )
                  ( -1.0000000  0.0000000  0.0000000 )


      isym = 34     inv. 180 deg rotation - cart. axis [-1,0,1]  

 cryst.   s(34) = (     0          0          1      )
                  (     0          1          0      )
                  (     1          0          0      )

 cart.    s(34) = (  0.0000000  0.0000000  1.0000000 )
                  (  0.0000000  1.0000000  0.0000000 )
                  (  1.0000000  0.0000000  0.0000000 )


      isym = 35     inv.  90 deg rotation - cart. axis [0,1,0]   

 cryst.   s(35) = (     0          0          1      )
                  (     0         -1          0      )
                  (    -1          0          0      )

 cart.    s(35) = (  0.0000000  0.0000000 -1.0000000 )
                  (  0.0000000 -1.0000000  0.0000000 )
                  (  1.0000000  0.0000000  0.0000000 )


      isym = 36     inv.  90 deg rotation - cart. axis [0,-1,0]  

 cryst.   s(36) = (     0          0         -1      )
                  (     0         -1          0      )
                  (     1          0          0      )

 cart.    s(36) = (  0.0000000  0.0000000  1.0000000 )
                  (  0.0000000 -1.0000000  0.0000000 )
                  ( -1.0000000  0.0000000  0.0000000 )


      isym = 37     inv. 180 deg rotation - cart. axis [0,1,1]   

 cryst.   s(37) = (     1          0          0      )
                  (     0          0         -1      )
                  (     0         -1          0      )

 cart.    s(37) = (  1.0000000  0.0000000  0.0000000 )
                  (  0.0000000  0.0000000 -1.0000000 )
                  (  0.0000000 -1.0000000  0.0000000 )


      isym = 38     inv. 180 deg rotation - cart. axis [0,1,-1]  

 cryst.   s(38) = (     1          0          0      )
                  (     0          0          1      )
                  (     0          1          0      )

 cart.    s(38) = (  1.0000000  0.0000000  0.0000000 )
                  (  0.0000000  0.0000000  1.0000000 )
                  (  0.0000000  1.0000000  0.0000000 )


      isym = 39     inv.  90 deg rotation - cart. axis [-1,0,0]  

 cryst.   s(39) = (    -1          0          0      )
                  (     0          0          1      )
                  (     0         -1          0      )

 cart.    s(39) = ( -1.0000000  0.0000000  0.0000000 )
                  (  0.0000000  0.0000000 -1.0000000 )
                  (  0.0000000  1.0000000  0.0000000 )


      isym = 40     inv.  90 deg rotation - cart. axis [1,0,0]   

 cryst.   s(40) = (    -1          0          0      )
                  (     0          0         -1      )
                  (     0          1          0      )

 cart.    s(40) = ( -1.0000000  0.0000000  0.0000000 )
                  (  0.0000000  0.0000000  1.0000000 )
                  (  0.0000000 -1.0000000  0.0000000 )


      isym = 41     inv. 120 deg rotation - cart. axis [-1,-1,-1]

 cryst.   s(41) = (     0          0         -1      )
                  (    -1          0          0      )
                  (     0         -1          0      )

 cart.    s(41) = (  0.0000000 -1.0000000  0.0000000 )
                  (  0.0000000  0.0000000 -1.0000000 )
                  ( -1.0000000  0.0000000  0.0000000 )


      isym = 42     inv. 120 deg rotation - cart. axis [-1,1,1]  

 cryst.   s(42) = (     0          0          1      )
                  (     1          0          0      )
                  (     0         -1          0      )

 cart.    s(42) = (  0.0000000  1.0000000  0.0000000 )
                  (  0.0000000  0.0000000 -1.0000000 )
                  (  1.0000000  0.0000000  0.0000000 )


      isym = 43     inv. 120 deg rotation - cart. axis [1,1,-1]  

 cryst.   s(43) = (     0          0          1      )
                  (    -1          0          0      )
                  (     0          1          0      )

 cart.    s(43) = (  0.0000000 -1.0000000  0.0000000 )
                  (  0.0000000  0.0000000  1.0000000 )
                  (  1.0000000  0.0000000  0.0000000 )


      isym = 44     inv. 120 deg rotation - cart. axis [1,-1,1]  

 cryst.   s(44) = (     0          0         -1      )
                  (     1          0          0      )
                  (     0          1          0      )

 cart.    s(44) = (  0.0000000  1.0000000  0.0000000 )
                  (  0.0000000  0.0000000  1.0000000 )
                  ( -1.0000000  0.0000000  0.0000000 )


      isym = 45     inv. 120 deg rotation - cart. axis [1,1,1]   

 cryst.   s(45) = (     0         -1          0      )
                  (     0          0         -1      )
                  (    -1          0          0      )

 cart.    s(45) = (  0.0000000  0.0000000 -1.0000000 )
                  ( -1.0000000  0.0000000  0.0000000 )
                  (  0.0000000 -1.0000000  0.0000000 )


      isym = 46     inv. 120 deg rotation - cart. axis [-1,1,-1] 

 cryst.   s(46) = (     0          1          0      )
                  (     0          0          1      )
                  (    -1          0          0      )

 cart.    s(46) = (  0.0000000  0.0000000 -1.0000000 )
                  (  1.0000000  0.0000000  0.0000000 )
                  (  0.0000000  1.0000000  0.0000000 )


      isym = 47     inv. 120 deg rotation - cart. axis [1,-1,-1] 

 cryst.   s(47) = (     0          1          0      )
                  (     0          0         -1      )
                  (     1          0          0      )

 cart.    s(47) = (  0.0000000  0.0000000  1.0000000 )
                  (  1.0000000  0.0000000  0.0000000 )
                  (  0.0000000 -1.0000000  0.0000000 )


      isym = 48     inv. 120 deg rotation - cart. axis [-1,-1,1] 

 cryst.   s(48) = (     0         -1          0      )
                  (     0          0          1      )
                  (     1          0          0      )

 cart.    s(48) = (  0.0000000  0.0000000  1.0000000 )
                  ( -1.0000000  0.0000000  0.0000000 )
                  (  0.0000000  1.0000000  0.0000000 )


     point group O_h (m-3m) 
     there are 10 classes
     the character table:

       E     8C3   3C2   6C4   6C2'  i     8S6   3s_h  6S4   6s_d 
A_1g   1.00  1.00  1.00  1.00  1.00  1.00  1.00  1.00  1.00  1.00
A_2g   1.00  1.00  1.00 -1.00 -1.00  1.00  1.00  1.00 -1.00 -1.00
E_g    2.00 -1.00  2.00  0.00  0.00  2.00 -1.00  2.00  0.00  0.00
T_1g   3.00  0.00 -1.00  1.00 -1.00  3.00  0.00 -1.00  1.00 -1.00
T_2g   3.00  0.00 -1.00 -1.00  1.00  3.00  0.00 -1.00 -1.00  1.00
A_1u   1.00  1.00  1.00  1.00  1.00 -1.00 -1.00 -1.00 -1.00 -1.00
A_2u   1.00  1.00  1.00 -1.00 -1.00 -1.00 -1.00 -1.00  1.00  1.00
E_u    2.00 -1.00  2.00  0.00  0.00 -2.00  1.00 -2.00  0.00  0.00
T_1u   3.00  0.00 -1.00  1.00 -1.00 -3.00  0.00  1.00 -1.00  1.00
T_2u   3.00  0.00 -1.00 -1.00  1.00 -3.00  0.00  1.00  1.00 -1.00

     the symmetry operations in each class and the name of the first element:

     E        1
          identity                                               
     8C3     17   19   20   18   24   21   22   23
          120 deg rotation - cart. axis [-1,-1,-1]               
     3C2      2    4    3
          180 deg rotation - cart. axis [0,0,1]                  
     6C4      7    8   15   16   12   11
           90 deg rotation - cart. axis [0,0,-1]                 
     6C2'     5    6   14   13   10    9
          180 deg rotation - cart. axis [1,1,0]                  
     i       25
          inversion                                              
     8S6     41   43   44   42   48   45   46   47
          inv. 120 deg rotation - cart. axis [-1,-1,-1]          
     3s_h    26   28   27
          inv. 180 deg rotation - cart. axis [0,0,1]             
     6S4     31   32   39   40   36   35
          inv.  90 deg rotation - cart. axis [0,0,-1]            
     6s_d    29   30   38   37   34   33
          inv. 180 deg rotation - cart. axis [1,1,0]             

   Cartesian axes

     site n.     atom                  positions (alat units)
         1           Fe  tau(   1) = (   0.0000000   0.0000000   0.0000000  )
         2           Ti  tau(   2) = (   0.5000000   0.5000000   0.5000000  )

   Crystallographic axes

     site n.     atom                  positions (cryst. coord.)
         1           Fe  tau(   1) = (  0.0000000  0.0000000  0.0000000  )
         2           Ti  tau(   2) = (  0.5000000  0.5000000  0.5000000  )

     number of k points=   120  Fermi-Dirac smearing, width (Ry)=  0.0100
                       cart. coord. in units 2pi/alat
        k(    1) = (   0.0312500   0.0312500   0.0312500), wk =   0.0039062
        k(    2) = (   0.0312500   0.0312500   0.0937500), wk =   0.0117188
        k(    3) = (   0.0312500   0.0312500   0.1562500), wk =   0.0117188
        k(    4) = (   0.0312500   0.0312500   0.2187500), wk =   0.0117188
        k(    5) = (   0.0312500   0.0312500   0.2812500), wk =   0.0117188
        k(    6) = (   0.0312500   0.0312500   0.3437500), wk =   0.0117188
        k(    7) = (   0.0312500   0.0312500   0.4062500), wk =   0.0117188
        k(    8) = (   0.0312500   0.0312500   0.4687500), wk =   0.0117188
        k(    9) = (   0.0312500   0.0937500   0.0937500), wk =   0.0117188
        k(   10) = (   0.0312500   0.0937500   0.1562500), wk =   0.0234375
        k(   11) = (   0.0312500   0.0937500   0.2187500), wk =   0.0234375
        k(   12) = (   0.0312500   0.0937500   0.2812500), wk =   0.0234375
        k(   13) = (   0.0312500   0.0937500   0.3437500), wk =   0.0234375
        k(   14) = (   0.0312500   0.0937500   0.4062500), wk =   0.0234375
        k(   15) = (   0.0312500   0.0937500   0.4687500), wk =   0.0234375
        k(   16) = (   0.0312500   0.1562500   0.1562500), wk =   0.0117188
        k(   17) = (   0.0312500   0.1562500   0.2187500), wk =   0.0234375
        k(   18) = (   0.0312500   0.1562500   0.2812500), wk =   0.0234375
        k(   19) = (   0.0312500   0.1562500   0.3437500), wk =   0.0234375
        k(   20) = (   0.0312500   0.1562500   0.4062500), wk =   0.0234375
        k(   21) = (   0.0312500   0.1562500   0.4687500), wk =   0.0234375
        k(   22) = (   0.0312500   0.2187500   0.2187500), wk =   0.0117188
        k(   23) = (   0.0312500   0.2187500   0.2812500), wk =   0.0234375
        k(   24) = (   0.0312500   0.2187500   0.3437500), wk =   0.0234375
        k(   25) = (   0.0312500   0.2187500   0.4062500), wk =   0.0234375
        k(   26) = (   0.0312500   0.2187500   0.4687500), wk =   0.0234375
        k(   27) = (   0.0312500   0.2812500   0.2812500), wk =   0.0117188
        k(   28) = (   0.0312500   0.2812500   0.3437500), wk =   0.0234375
        k(   29) = (   0.0312500   0.2812500   0.4062500), wk =   0.0234375
        k(   30) = (   0.0312500   0.2812500   0.4687500), wk =   0.0234375
        k(   31) = (   0.0312500   0.3437500   0.3437500), wk =   0.0117188
        k(   32) = (   0.0312500   0.3437500   0.4062500), wk =   0.0234375
        k(   33) = (   0.0312500   0.3437500   0.4687500), wk =   0.0234375
        k(   34) = (   0.0312500   0.4062500   0.4062500), wk =   0.0117188
        k(   35) = (   0.0312500   0.4062500   0.4687500), wk =   0.0234375
        k(   36) = (   0.0312500   0.4687500   0.4687500), wk =   0.0117188
        k(   37) = (   0.0937500   0.0937500   0.0937500), wk =   0.0039062
        k(   38) = (   0.0937500   0.0937500   0.1562500), wk =   0.0117188
        k(   39) = (   0.0937500   0.0937500   0.2187500), wk =   0.0117188
        k(   40) = (   0.0937500   0.0937500   0.2812500), wk =   0.0117188
        k(   41) = (   0.0937500   0.0937500   0.3437500), wk =   0.0117188
        k(   42) = (   0.0937500   0.0937500   0.4062500), wk =   0.0117188
        k(   43) = (   0.0937500   0.0937500   0.4687500), wk =   0.0117188
        k(   44) = (   0.0937500   0.1562500   0.1562500), wk =   0.0117188
        k(   45) = (   0.0937500   0.1562500   0.2187500), wk =   0.0234375
        k(   46) = (   0.0937500   0.1562500   0.2812500), wk =   0.0234375
        k(   47) = (   0.0937500   0.1562500   0.3437500), wk =   0.0234375
        k(   48) = (   0.0937500   0.1562500   0.4062500), wk =   0.0234375
        k(   49) = (   0.0937500   0.1562500   0.4687500), wk =   0.0234375
        k(   50) = (   0.0937500   0.2187500   0.2187500), wk =   0.0117188
        k(   51) = (   0.0937500   0.2187500   0.2812500), wk =   0.0234375
        k(   52) = (   0.0937500   0.2187500   0.3437500), wk =   0.0234375
        k(   53) = (   0.0937500   0.2187500   0.4062500), wk =   0.0234375
        k(   54) = (   0.0937500   0.2187500   0.4687500), wk =   0.0234375
        k(   55) = (   0.0937500   0.2812500   0.2812500), wk =   0.0117188
        k(   56) = (   0.0937500   0.2812500   0.3437500), wk =   0.0234375
        k(   57) = (   0.0937500   0.2812500   0.4062500), wk =   0.0234375
        k(   58) = (   0.0937500   0.2812500   0.4687500), wk =   0.0234375
        k(   59) = (   0.0937500   0.3437500   0.3437500), wk =   0.0117188
        k(   60) = (   0.0937500   0.3437500   0.4062500), wk =   0.0234375
        k(   61) = (   0.0937500   0.3437500   0.4687500), wk =   0.0234375
        k(   62) = (   0.0937500   0.4062500   0.4062500), wk =   0.0117188
        k(   63) = (   0.0937500   0.4062500   0.4687500), wk =   0.0234375
        k(   64) = (   0.0937500   0.4687500   0.4687500), wk =   0.0117188
        k(   65) = (   0.1562500   0.1562500   0.1562500), wk =   0.0039062
        k(   66) = (   0.1562500   0.1562500   0.2187500), wk =   0.0117188
        k(   67) = (   0.1562500   0.1562500   0.2812500), wk =   0.0117188
        k(   68) = (   0.1562500   0.1562500   0.3437500), wk =   0.0117188
        k(   69) = (   0.1562500   0.1562500   0.4062500), wk =   0.0117188
        k(   70) = (   0.1562500   0.1562500   0.4687500), wk =   0.0117188
        k(   71) = (   0.1562500   0.2187500   0.2187500), wk =   0.0117188
        k(   72) = (   0.1562500   0.2187500   0.2812500), wk =   0.0234375
        k(   73) = (   0.1562500   0.2187500   0.3437500), wk =   0.0234375
        k(   74) = (   0.1562500   0.2187500   0.4062500), wk =   0.0234375
        k(   75) = (   0.1562500   0.2187500   0.4687500), wk =   0.0234375
        k(   76) = (   0.1562500   0.2812500   0.2812500), wk =   0.0117188
        k(   77) = (   0.1562500   0.2812500   0.3437500), wk =   0.0234375
        k(   78) = (   0.1562500   0.2812500   0.4062500), wk =   0.0234375
        k(   79) = (   0.1562500   0.2812500   0.4687500), wk =   0.0234375
        k(   80) = (   0.1562500   0.3437500   0.3437500), wk =   0.0117188
        k(   81) = (   0.1562500   0.3437500   0.4062500), wk =   0.0234375
        k(   82) = (   0.1562500   0.3437500   0.4687500), wk =   0.0234375
        k(   83) = (   0.1562500   0.4062500   0.4062500), wk =   0.0117188
        k(   84) = (   0.1562500   0.4062500   0.4687500), wk =   0.0234375
        k(   85) = (   0.1562500   0.4687500   0.4687500), wk =   0.0117188
        k(   86) = (   0.2187500   0.2187500   0.2187500), wk =   0.0039062
        k(   87) = (   0.2187500   0.2187500   0.2812500), wk =   0.0117188
        k(   88) = (   0.2187500   0.2187500   0.3437500), wk =   0.0117188
        k(   89) = (   0.2187500   0.2187500   0.4062500), wk =   0.0117188
        k(   90) = (   0.2187500   0.2187500   0.4687500), wk =   0.0117188
        k(   91) = (   0.2187500   0.2812500   0.2812500), wk =   0.0117188
        k(   92) = (   0.2187500   0.2812500   0.3437500), wk =   0.0234375
        k(   93) = (   0.2187500   0.2812500   0.4062500), wk =   0.0234375
        k(   94) = (   0.2187500   0.2812500   0.4687500), wk =   0.0234375
        k(   95) = (   0.2187500   0.3437500   0.3437500), wk =   0.0117188
        k(   96) = (   0.2187500   0.3437500   0.4062500), wk =   0.0234375
        k(   97) = (   0.2187500   0.3437500   0.4687500), wk =   0.0234375
        k(   98) = (   0.2187500   0.4062500   0.4062500), wk =   0.0117188
        k(   99) = (   0.2187500   0.4062500   0.4687500), wk =   0.0234375
        k(  100) = (   0.2187500   0.4687500   0.4687500), wk =   0.0117188
        k(  101) = (   0.2812500   0.2812500   0.2812500), wk =   0.0039062
        k(  102) = (   0.2812500   0.2812500   0.3437500), wk =   0.0117188
        k(  103) = (   0.2812500   0.2812500   0.4062500), wk =   0.0117188
        k(  104) = (   0.2812500   0.2812500   0.4687500), wk =   0.0117188
        k(  105) = (   0.2812500   0.3437500   0.3437500), wk =   0.0117188
        k(  106) = (   0.2812500   0.3437500   0.4062500), wk =   0.0234375
        k(  107) = (   0.2812500   0.3437500   0.4687500), wk =   0.0234375
        k(  108) = (   0.2812500   0.4062500   0.4062500), wk =   0.0117188
        k(  109) = (   0.2812500   0.4062500   0.4687500), wk =   0.0234375
        k(  110) = (   0.2812500   0.4687500   0.4687500), wk =   0.0117188
        k(  111) = (   0.3437500   0.3437500   0.3437500), wk =   0.0039062
        k(  112) = (   0.3437500   0.3437500   0.4062500), wk =   0.0117188
        k(  113) = (   0.3437500   0.3437500   0.4687500), wk =   0.0117188
        k(  114) = (   0.3437500   0.4062500   0.4062500), wk =   0.0117188
        k(  115) = (   0.3437500   0.4062500   0.4687500), wk =   0.0234375
        k(  116) = (   0.3437500   0.4687500   0.4687500), wk =   0.0117188
        k(  117) = (   0.4062500   0.4062500   0.4062500), wk =   0.0039062
        k(  118) = (   0.4062500   0.4062500   0.4687500), wk =   0.0117188
        k(  119) = (   0.4062500   0.4687500   0.4687500), wk =   0.0117188
        k(  120) = (   0.4687500   0.4687500   0.4687500), wk =   0.0039062

                       cryst. coord.
        k(    1) = (   0.0312500   0.0312500   0.0312500), wk =   0.0039062
        k(    2) = (   0.0312500   0.0312500   0.0937500), wk =   0.0117188
        k(    3) = (   0.0312500   0.0312500   0.1562500), wk =   0.0117188
        k(    4) = (   0.0312500   0.0312500   0.2187500), wk =   0.0117188
        k(    5) = (   0.0312500   0.0312500   0.2812500), wk =   0.0117188
        k(    6) = (   0.0312500   0.0312500   0.3437500), wk =   0.0117188
        k(    7) = (   0.0312500   0.0312500   0.4062500), wk =   0.0117188
        k(    8) = (   0.0312500   0.0312500   0.4687500), wk =   0.0117188
        k(    9) = (   0.0312500   0.0937500   0.0937500), wk =   0.0117188
        k(   10) = (   0.0312500   0.0937500   0.1562500), wk =   0.0234375
        k(   11) = (   0.0312500   0.0937500   0.2187500), wk =   0.0234375
        k(   12) = (   0.0312500   0.0937500   0.2812500), wk =   0.0234375
        k(   13) = (   0.0312500   0.0937500   0.3437500), wk =   0.0234375
        k(   14) = (   0.0312500   0.0937500   0.4062500), wk =   0.0234375
        k(   15) = (   0.0312500   0.0937500   0.4687500), wk =   0.0234375
        k(   16) = (   0.0312500   0.1562500   0.1562500), wk =   0.0117188
        k(   17) = (   0.0312500   0.1562500   0.2187500), wk =   0.0234375
        k(   18) = (   0.0312500   0.1562500   0.2812500), wk =   0.0234375
        k(   19) = (   0.0312500   0.1562500   0.3437500), wk =   0.0234375
        k(   20) = (   0.0312500   0.1562500   0.4062500), wk =   0.0234375
        k(   21) = (   0.0312500   0.1562500   0.4687500), wk =   0.0234375
        k(   22) = (   0.0312500   0.2187500   0.2187500), wk =   0.0117188
        k(   23) = (   0.0312500   0.2187500   0.2812500), wk =   0.0234375
        k(   24) = (   0.0312500   0.2187500   0.3437500), wk =   0.0234375
        k(   25) = (   0.0312500   0.2187500   0.4062500), wk =   0.0234375
        k(   26) = (   0.0312500   0.2187500   0.4687500), wk =   0.0234375
        k(   27) = (   0.0312500   0.2812500   0.2812500), wk =   0.0117188
        k(   28) = (   0.0312500   0.2812500   0.3437500), wk =   0.0234375
        k(   29) = (   0.0312500   0.2812500   0.4062500), wk =   0.0234375
        k(   30) = (   0.0312500   0.2812500   0.4687500), wk =   0.0234375
        k(   31) = (   0.0312500   0.3437500   0.3437500), wk =   0.0117188
        k(   32) = (   0.0312500   0.3437500   0.4062500), wk =   0.0234375
        k(   33) = (   0.0312500   0.3437500   0.4687500), wk =   0.0234375
        k(   34) = (   0.0312500   0.4062500   0.4062500), wk =   0.0117188
        k(   35) = (   0.0312500   0.4062500   0.4687500), wk =   0.0234375
        k(   36) = (   0.0312500   0.4687500   0.4687500), wk =   0.0117188
        k(   37) = (   0.0937500   0.0937500   0.0937500), wk =   0.0039062
        k(   38) = (   0.0937500   0.0937500   0.1562500), wk =   0.0117188
        k(   39) = (   0.0937500   0.0937500   0.2187500), wk =   0.0117188
        k(   40) = (   0.0937500   0.0937500   0.2812500), wk =   0.0117188
        k(   41) = (   0.0937500   0.0937500   0.3437500), wk =   0.0117188
        k(   42) = (   0.0937500   0.0937500   0.4062500), wk =   0.0117188
        k(   43) = (   0.0937500   0.0937500   0.4687500), wk =   0.0117188
        k(   44) = (   0.0937500   0.1562500   0.1562500), wk =   0.0117188
        k(   45) = (   0.0937500   0.1562500   0.2187500), wk =   0.0234375
        k(   46) = (   0.0937500   0.1562500   0.2812500), wk =   0.0234375
        k(   47) = (   0.0937500   0.1562500   0.3437500), wk =   0.0234375
        k(   48) = (   0.0937500   0.1562500   0.4062500), wk =   0.0234375
        k(   49) = (   0.0937500   0.1562500   0.4687500), wk =   0.0234375
        k(   50) = (   0.0937500   0.2187500   0.2187500), wk =   0.0117188
        k(   51) = (   0.0937500   0.2187500   0.2812500), wk =   0.0234375
        k(   52) = (   0.0937500   0.2187500   0.3437500), wk =   0.0234375
        k(   53) = (   0.0937500   0.2187500   0.4062500), wk =   0.0234375
        k(   54) = (   0.0937500   0.2187500   0.4687500), wk =   0.0234375
        k(   55) = (   0.0937500   0.2812500   0.2812500), wk =   0.0117188
        k(   56) = (   0.0937500   0.2812500   0.3437500), wk =   0.0234375
        k(   57) = (   0.0937500   0.2812500   0.4062500), wk =   0.0234375
        k(   58) = (   0.0937500   0.2812500   0.4687500), wk =   0.0234375
        k(   59) = (   0.0937500   0.3437500   0.3437500), wk =   0.0117188
        k(   60) = (   0.0937500   0.3437500   0.4062500), wk =   0.0234375
        k(   61) = (   0.0937500   0.3437500   0.4687500), wk =   0.0234375
        k(   62) = (   0.0937500   0.4062500   0.4062500), wk =   0.0117188
        k(   63) = (   0.0937500   0.4062500   0.4687500), wk =   0.0234375
        k(   64) = (   0.0937500   0.4687500   0.4687500), wk =   0.0117188
        k(   65) = (   0.1562500   0.1562500   0.1562500), wk =   0.0039062
        k(   66) = (   0.1562500   0.1562500   0.2187500), wk =   0.0117188
        k(   67) = (   0.1562500   0.1562500   0.2812500), wk =   0.0117188
        k(   68) = (   0.1562500   0.1562500   0.3437500), wk =   0.0117188
        k(   69) = (   0.1562500   0.1562500   0.4062500), wk =   0.0117188
        k(   70) = (   0.1562500   0.1562500   0.4687500), wk =   0.0117188
        k(   71) = (   0.1562500   0.2187500   0.2187500), wk =   0.0117188
        k(   72) = (   0.1562500   0.2187500   0.2812500), wk =   0.0234375
        k(   73) = (   0.1562500   0.2187500   0.3437500), wk =   0.0234375
        k(   74) = (   0.1562500   0.2187500   0.4062500), wk =   0.0234375
        k(   75) = (   0.1562500   0.2187500   0.4687500), wk =   0.0234375
        k(   76) = (   0.1562500   0.2812500   0.2812500), wk =   0.0117188
        k(   77) = (   0.1562500   0.2812500   0.3437500), wk =   0.0234375
        k(   78) = (   0.1562500   0.2812500   0.4062500), wk =   0.0234375
        k(   79) = (   0.1562500   0.2812500   0.4687500), wk =   0.0234375
        k(   80) = (   0.1562500   0.3437500   0.3437500), wk =   0.0117188
        k(   81) = (   0.1562500   0.3437500   0.4062500), wk =   0.0234375
        k(   82) = (   0.1562500   0.3437500   0.4687500), wk =   0.0234375
        k(   83) = (   0.1562500   0.4062500   0.4062500), wk =   0.0117188
        k(   84) = (   0.1562500   0.4062500   0.4687500), wk =   0.0234375
        k(   85) = (   0.1562500   0.4687500   0.4687500), wk =   0.0117188
        k(   86) = (   0.2187500   0.2187500   0.2187500), wk =   0.0039062
        k(   87) = (   0.2187500   0.2187500   0.2812500), wk =   0.0117188
        k(   88) = (   0.2187500   0.2187500   0.3437500), wk =   0.0117188
        k(   89) = (   0.2187500   0.2187500   0.4062500), wk =   0.0117188
        k(   90) = (   0.2187500   0.2187500   0.4687500), wk =   0.0117188
        k(   91) = (   0.2187500   0.2812500   0.2812500), wk =   0.0117188
        k(   92) = (   0.2187500   0.2812500   0.3437500), wk =   0.0234375
        k(   93) = (   0.2187500   0.2812500   0.4062500), wk =   0.0234375
        k(   94) = (   0.2187500   0.2812500   0.4687500), wk =   0.0234375
        k(   95) = (   0.2187500   0.3437500   0.3437500), wk =   0.0117188
        k(   96) = (   0.2187500   0.3437500   0.4062500), wk =   0.0234375
        k(   97) = (   0.2187500   0.3437500   0.4687500), wk =   0.0234375
        k(   98) = (   0.2187500   0.4062500   0.4062500), wk =   0.0117188
        k(   99) = (   0.2187500   0.4062500   0.4687500), wk =   0.0234375
        k(  100) = (   0.2187500   0.4687500   0.4687500), wk =   0.0117188
        k(  101) = (   0.2812500   0.2812500   0.2812500), wk =   0.0039062
        k(  102) = (   0.2812500   0.2812500   0.3437500), wk =   0.0117188
        k(  103) = (   0.2812500   0.2812500   0.4062500), wk =   0.0117188
        k(  104) = (   0.2812500   0.2812500   0.4687500), wk =   0.0117188
        k(  105) = (   0.2812500   0.3437500   0.3437500), wk =   0.0117188
        k(  106) = (   0.2812500   0.3437500   0.4062500), wk =   0.0234375
        k(  107) = (   0.2812500   0.3437500   0.4687500), wk =   0.0234375
        k(  108) = (   0.2812500   0.4062500   0.4062500), wk =   0.0117188
        k(  109) = (   0.2812500   0.4062500   0.4687500), wk =   0.0234375
        k(  110) = (   0.2812500   0.4687500   0.4687500), wk =   0.0117188
        k(  111) = (   0.3437500   0.3437500   0.3437500), wk =   0.0039062
        k(  112) = (   0.3437500   0.3437500   0.4062500), wk =   0.0117188
        k(  113) = (   0.3437500   0.3437500   0.4687500), wk =   0.0117188
        k(  114) = (   0.3437500   0.4062500   0.4062500), wk =   0.0117188
        k(  115) = (   0.3437500   0.4062500   0.4687500), wk =   0.0234375
        k(  116) = (   0.3437500   0.4687500   0.4687500), wk =   0.0117188
        k(  117) = (   0.4062500   0.4062500   0.4062500), wk =   0.0039062
        k(  118) = (   0.4062500   0.4062500   0.4687500), wk =   0.0117188
        k(  119) = (   0.4062500   0.4687500   0.4687500), wk =   0.0117188
        k(  120) = (   0.4687500   0.4687500   0.4687500), wk =   0.0039062

     Dense  grid:    23703 G-vectors     FFT dimensions: (  36,  36,  36)

     Smooth grid:     8385 G-vectors     FFT dimensions: (  25,  25,  25)

     Dynamical RAM for                 wfc:       0.22 MB

     Dynamical RAM for     wfc (w. buffer):      27.09 MB

     Dynamical RAM for           str. fact:       0.72 MB

     Dynamical RAM for           local pot:       0.00 MB

     Dynamical RAM for          nlocal pot:       0.58 MB

     Dynamical RAM for                qrad:       2.86 MB

     Dynamical RAM for          rho,v,vnew:       2.15 MB

     Dynamical RAM for               rhoin:       0.72 MB

     Dynamical RAM for            rho*nmix:       5.79 MB

     Dynamical RAM for           G-vectors:       1.42 MB

     Dynamical RAM for          h,s,v(r/c):       0.01 MB

     Dynamical RAM for          <psi|beta>:       0.01 MB

     Dynamical RAM for      wfcinit/wfcrot:       0.52 MB

     Dynamical RAM for           addusdens:      67.63 MB

     Dynamical RAM for          addusforce:      68.91 MB

     Estimated static dynamical RAM per process >      44.19 MB

     Estimated max dynamical RAM per process >     113.10 MB

     Check: negative/imaginary core charge=   -0.000012    0.000000

     Initial potential from superposition of free atoms

     starting charge   18.99949, renormalised to   19.50000
     Starting wfcs are   16 randomized atomic wfcs

     total cpu time spent up to now is        3.0 secs

     Self-consistent Calculation

     iteration #  1     ecut=    50.00 Ry     beta= 0.70
     CG style diagonalization
     ethr =  1.00E-02,  avg # of iterations =  2.8

     total cpu time spent up to now is        8.4 secs

     total energy              =    -160.20874937 Ry
     Harris-Foulkes estimate   =    -173.75899553 Ry
     estimated scf accuracy    <      15.85018306 Ry

     iteration #  2     ecut=    50.00 Ry     beta= 0.70
     CG style diagonalization
     c_bands:  1 eigenvalues not converged
     c_bands:  1 eigenvalues not converged
     c_bands:  1 eigenvalues not converged
     c_bands:  1 eigenvalues not converged
     c_bands:  1 eigenvalues not converged
     c_bands:  1 eigenvalues not converged
     c_bands:  1 eigenvalues not converged
     c_bands:  1 eigenvalues not converged
     c_bands:  1 eigenvalues not converged
     c_bands:  1 eigenvalues not converged
     c_bands:  1 eigenvalues not converged
     c_bands:  1 eigenvalues not converged
     c_bands:  1 eigenvalues not converged
     ethr =  1.00E-02,  avg # of iterations =  8.2

     total cpu time spent up to now is       21.8 secs

     total energy              =    -172.50984392 Ry
     Harris-Foulkes estimate   =    -194.66358253 Ry
     estimated scf accuracy    <      54.62593778 Ry

     iteration #  3     ecut=    50.00 Ry     beta= 0.70
     CG style diagonalization
     ethr =  1.00E-02,  avg # of iterations =  4.4

     total cpu time spent up to now is       29.3 secs

     total energy              =    -173.34907464 Ry
     Harris-Foulkes estimate   =    -176.08449442 Ry
     estimated scf accuracy    <      13.24990366 Ry

     iteration #  4     ecut=    50.00 Ry     beta= 0.70
     CG style diagonalization
     ethr =  1.00E-02,  avg # of iterations =  3.3

     total cpu time spent up to now is       35.1 secs

     total energy              =    -173.27936807 Ry
     Harris-Foulkes estimate   =    -173.66310801 Ry
     estimated scf accuracy    <       6.58486280 Ry

     iteration #  5     ecut=    50.00 Ry     beta= 0.70
     CG style diagonalization
     ethr =  1.00E-02,  avg # of iterations =  3.0

     total cpu time spent up to now is       40.5 secs

     total energy              =    -173.23626250 Ry
     Harris-Foulkes estimate   =    -173.34071516 Ry
     estimated scf accuracy    <       5.02584678 Ry

     iteration #  6     ecut=    50.00 Ry     beta= 0.70
     CG style diagonalization
     ethr =  1.00E-02,  avg # of iterations =  3.0

     total cpu time spent up to now is       45.8 secs

     total energy              =    -172.28346055 Ry
     Harris-Foulkes estimate   =    -173.25917317 Ry
     estimated scf accuracy    <       4.54217209 Ry

     iteration #  7     ecut=    50.00 Ry     beta= 0.70
     CG style diagonalization
     ethr =  1.00E-02,  avg # of iterations =  3.3

     total cpu time spent up to now is       51.6 secs

     total energy              =    -172.68857259 Ry
     Harris-Foulkes estimate   =    -172.67314127 Ry
     estimated scf accuracy    <       0.02586307 Ry

     iteration #  8     ecut=    50.00 Ry     beta= 0.70
     CG style diagonalization
     c_bands:  1 eigenvalues not converged
     ethr =  1.33E-04,  avg # of iterations =  6.9

     total cpu time spent up to now is       63.0 secs

     total energy              =    -172.81669466 Ry
     Harris-Foulkes estimate   =    -172.82423500 Ry
     estimated scf accuracy    <       0.57975796 Ry

     iteration #  9     ecut=    50.00 Ry     beta= 0.70
     CG style diagonalization
     ethr =  1.33E-04,  avg # of iterations =  3.3

     total cpu time spent up to now is       68.8 secs

     total energy              =    -172.75085013 Ry
     Harris-Foulkes estimate   =    -172.82087603 Ry
     estimated scf accuracy    <       0.43295003 Ry

     iteration # 10     ecut=    50.00 Ry     beta= 0.70
     CG style diagonalization
     ethr =  1.33E-04,  avg # of iterations =  4.9

     total cpu time spent up to now is       77.1 secs

     total energy              =    -172.88130164 Ry
     Harris-Foulkes estimate   =    -172.81300915 Ry
     estimated scf accuracy    <       0.18397554 Ry

     iteration # 11     ecut=    50.00 Ry     beta= 0.70
     CG style diagonalization
     c_bands:  1 eigenvalues not converged
     ethr =  1.33E-04,  avg # of iterations =  4.7

     total cpu time spent up to now is       85.1 secs

     total energy              =    -173.45048734 Ry
     Harris-Foulkes estimate   =    -173.03271798 Ry
     estimated scf accuracy    <       5.45027643 Ry

     iteration # 12     ecut=    50.00 Ry     beta= 0.70
     CG style diagonalization
     ethr =  1.33E-04,  avg # of iterations =  5.3

     total cpu time spent up to now is       94.1 secs

     total energy              =    -173.33532628 Ry
     Harris-Foulkes estimate   =    -173.63314767 Ry
     estimated scf accuracy    <      17.90590440 Ry

     iteration # 13     ecut=    50.00 Ry     beta= 0.70
     CG style diagonalization
     ethr =  1.33E-04,  avg # of iterations =  3.5

     total cpu time spent up to now is      100.3 secs

     total energy              =    -171.83710555 Ry
     Harris-Foulkes estimate   =    -173.35361784 Ry
     estimated scf accuracy    <      13.46532020 Ry

     iteration # 14     ecut=    50.00 Ry     beta= 0.70
     CG style diagonalization
     c_bands:  1 eigenvalues not converged
     c_bands:  1 eigenvalues not converged
     c_bands:  1 eigenvalues not converged
     c_bands:  2 eigenvalues not converged
     c_bands:  1 eigenvalues not converged
     ethr =  1.33E-04,  avg # of iterations =  7.1

     total cpu time spent up to now is      112.0 secs

     total energy              =    -172.85548503 Ry
     Harris-Foulkes estimate   =    -172.85165207 Ry
     estimated scf accuracy    <       0.23524738 Ry

     iteration # 15     ecut=    50.00 Ry     beta= 0.70
     CG style diagonalization
     ethr =  1.33E-04,  avg # of iterations =  3.8

     total cpu time spent up to now is      118.6 secs

     total energy              =    -172.84155764 Ry
     Harris-Foulkes estimate   =    -172.87679323 Ry
     estimated scf accuracy    <       0.67721642 Ry

     iteration # 16     ecut=    50.00 Ry     beta= 0.70
     CG style diagonalization
     ethr =  1.33E-04,  avg # of iterations =  4.8

     total cpu time spent up to now is      126.8 secs

     total energy              =    -172.78638003 Ry
     Harris-Foulkes estimate   =    -172.87350748 Ry
     estimated scf accuracy    <       1.25965161 Ry

     iteration # 17     ecut=    50.00 Ry     beta= 0.70
     CG style diagonalization
     ethr =  1.33E-04,  avg # of iterations =  3.7

     total cpu time spent up to now is      133.2 secs

     total energy              =    -172.77058500 Ry
     Harris-Foulkes estimate   =    -172.81493159 Ry
     estimated scf accuracy    <       0.21737603 Ry

     iteration # 18     ecut=    50.00 Ry     beta= 0.70
     CG style diagonalization
     ethr =  1.33E-04,  avg # of iterations =  4.1

     total cpu time spent up to now is      140.4 secs

     total energy              =    -172.77726616 Ry
     Harris-Foulkes estimate   =    -172.80154169 Ry
     estimated scf accuracy    <       0.04814206 Ry

     iteration # 19     ecut=    50.00 Ry     beta= 0.70
     CG style diagonalization
     ethr =  1.33E-04,  avg # of iterations =  3.7

     total cpu time spent up to now is      146.8 secs

     total energy              =    -172.78087842 Ry
     Harris-Foulkes estimate   =    -172.82035479 Ry
     estimated scf accuracy    <       0.40672476 Ry

     iteration # 20     ecut=    50.00 Ry     beta= 0.70
     CG style diagonalization
     ethr =  1.33E-04,  avg # of iterations =  3.4

     total cpu time spent up to now is      152.8 secs

     total energy              =    -172.80550150 Ry
     Harris-Foulkes estimate   =    -172.79957397 Ry
     estimated scf accuracy    <       0.02492806 Ry

     iteration # 21     ecut=    50.00 Ry     beta= 0.70
     CG style diagonalization
     ethr =  1.28E-04,  avg # of iterations =  3.1

     total cpu time spent up to now is      158.2 secs

     total energy              =    -172.80446691 Ry
     Harris-Foulkes estimate   =    -172.80733831 Ry
     estimated scf accuracy    <       0.04989853 Ry

     iteration # 22     ecut=    50.00 Ry     beta= 0.70
     CG style diagonalization
     ethr =  1.28E-04,  avg # of iterations =  3.0

     total cpu time spent up to now is      163.6 secs

     total energy              =    -172.79285847 Ry
     Harris-Foulkes estimate   =    -172.80508009 Ry
     estimated scf accuracy    <       0.05459212 Ry

     iteration # 23     ecut=    50.00 Ry     beta= 0.70
     CG style diagonalization
     ethr =  1.28E-04,  avg # of iterations =  3.1

     total cpu time spent up to now is      169.1 secs

     total energy              =    -172.79451149 Ry
     Harris-Foulkes estimate   =    -172.79596581 Ry
     estimated scf accuracy    <       0.00641271 Ry

     iteration # 24     ecut=    50.00 Ry     beta= 0.70
     CG style diagonalization
     ethr =  3.29E-05,  avg # of iterations =  3.6

     total cpu time spent up to now is      175.3 secs

     total energy              =    -172.79699983 Ry
     Harris-Foulkes estimate   =    -172.79675394 Ry
     estimated scf accuracy    <       0.00738947 Ry

     iteration # 25     ecut=    50.00 Ry     beta= 0.70
     CG style diagonalization
     ethr =  3.29E-05,  avg # of iterations =  3.3

     total cpu time spent up to now is      181.1 secs

     total energy              =    -172.79685085 Ry
     Harris-Foulkes estimate   =    -172.79785269 Ry
     estimated scf accuracy    <       0.01855184 Ry

     iteration # 26     ecut=    50.00 Ry     beta= 0.70
     CG style diagonalization
     ethr =  3.29E-05,  avg # of iterations =  3.2

     total cpu time spent up to now is      186.7 secs

     total energy              =    -172.79641952 Ry
     Harris-Foulkes estimate   =    -172.79793927 Ry
     estimated scf accuracy    <       0.00530107 Ry

     iteration # 27     ecut=    50.00 Ry     beta= 0.70
     CG style diagonalization
     ethr =  2.72E-05,  avg # of iterations =  3.2

     total cpu time spent up to now is      192.4 secs

     total energy              =    -172.79115200 Ry
     Harris-Foulkes estimate   =    -172.79807386 Ry
     estimated scf accuracy    <       0.02152012 Ry

     iteration # 28     ecut=    50.00 Ry     beta= 0.70
     CG style diagonalization
     ethr =  2.72E-05,  avg # of iterations =  3.8

     total cpu time spent up to now is      199.0 secs

     total energy              =    -172.78340834 Ry
     Harris-Foulkes estimate   =    -172.80345947 Ry
     estimated scf accuracy    <       0.13038822 Ry

     iteration # 29     ecut=    50.00 Ry     beta= 0.70
     CG style diagonalization
     ethr =  2.72E-05,  avg # of iterations =  4.0

     total cpu time spent up to now is      205.9 secs

     total energy              =    -172.78921798 Ry
     Harris-Foulkes estimate   =    -172.79771156 Ry
     estimated scf accuracy    <       0.02659382 Ry

     iteration # 30     ecut=    50.00 Ry     beta= 0.70
     CG style diagonalization
     ethr =  2.72E-05,  avg # of iterations =  4.9

     total cpu time spent up to now is      214.1 secs

     total energy              =    -172.78996911 Ry
     Harris-Foulkes estimate   =    -172.81329047 Ry
     estimated scf accuracy    <       0.28515813 Ry

     iteration # 31     ecut=    50.00 Ry     beta= 0.70
     CG style diagonalization
     ethr =  2.72E-05,  avg # of iterations =  4.1

     total cpu time spent up to now is      221.1 secs

     total energy              =    -172.79753404 Ry
     Harris-Foulkes estimate   =    -172.79762522 Ry
     estimated scf accuracy    <       0.02732301 Ry

     iteration # 32     ecut=    50.00 Ry     beta= 0.70
     CG style diagonalization
     ethr =  2.72E-05,  avg # of iterations =  3.1

     total cpu time spent up to now is      226.6 secs

     total energy              =    -172.79494983 Ry
     Harris-Foulkes estimate   =    -172.79775797 Ry
     estimated scf accuracy    <       0.02529433 Ry

     iteration # 33     ecut=    50.00 Ry     beta= 0.70
     CG style diagonalization
     ethr =  2.72E-05,  avg # of iterations =  3.1

     total cpu time spent up to now is      232.1 secs

     total energy              =    -172.79594346 Ry
     Harris-Foulkes estimate   =    -172.79605159 Ry
     estimated scf accuracy    <       0.00079501 Ry

     iteration # 34     ecut=    50.00 Ry     beta= 0.70
     CG style diagonalization
     c_bands:  1 eigenvalues not converged
     ethr =  4.08E-06,  avg # of iterations =  3.6

     total cpu time spent up to now is      238.5 secs

     total energy              =    -172.79611315 Ry
     Harris-Foulkes estimate   =    -172.79612785 Ry
     estimated scf accuracy    <       0.00005923 Ry

     iteration # 35     ecut=    50.00 Ry     beta= 0.70
     CG style diagonalization
     c_bands:  1 eigenvalues not converged
     c_bands:  1 eigenvalues not converged
     c_bands:  1 eigenvalues not converged
     ethr =  3.04E-07,  avg # of iterations =  4.9

     total cpu time spent up to now is      246.9 secs

     total energy              =    -172.79626522 Ry
     Harris-Foulkes estimate   =    -172.79628964 Ry
     estimated scf accuracy    <       0.00026064 Ry

     iteration # 36     ecut=    50.00 Ry     beta= 0.70
     CG style diagonalization
     ethr =  3.04E-07,  avg # of iterations =  3.4

     total cpu time spent up to now is      252.8 secs

     total energy              =    -172.79625112 Ry
     Harris-Foulkes estimate   =    -172.79627742 Ry
     estimated scf accuracy    <       0.00013598 Ry

     iteration # 37     ecut=    50.00 Ry     beta= 0.70
     CG style diagonalization
     c_bands:  1 eigenvalues not converged
     ethr =  3.04E-07,  avg # of iterations =  3.2

     total cpu time spent up to now is      258.5 secs

     total energy              =    -172.79627001 Ry
     Harris-Foulkes estimate   =    -172.79626539 Ry
     estimated scf accuracy    <       0.00000424 Ry

     iteration # 38     ecut=    50.00 Ry     beta= 0.70
     CG style diagonalization
     ethr =  2.18E-08,  avg # of iterations =  4.7

     total cpu time spent up to now is      266.5 secs

     total energy              =    -172.79625917 Ry
     Harris-Foulkes estimate   =    -172.79628654 Ry
     estimated scf accuracy    <       0.00021672 Ry

     iteration # 39     ecut=    50.00 Ry     beta= 0.70
     CG style diagonalization
     ethr =  2.18E-08,  avg # of iterations =  4.2

     total cpu time spent up to now is      273.7 secs

     total energy              =    -172.79626447 Ry
     Harris-Foulkes estimate   =    -172.79626793 Ry
     estimated scf accuracy    <       0.00001945 Ry

     iteration # 40     ecut=    50.00 Ry     beta= 0.70
     CG style diagonalization
     ethr =  2.18E-08,  avg # of iterations =  3.7

     total cpu time spent up to now is      280.2 secs

     total energy              =    -172.79626673 Ry
     Harris-Foulkes estimate   =    -172.79626753 Ry
     estimated scf accuracy    <       0.00000392 Ry

     iteration # 41     ecut=    50.00 Ry     beta= 0.70
     CG style diagonalization
     ethr =  2.01E-08,  avg # of iterations =  3.1

     total cpu time spent up to now is      285.7 secs

     total energy              =    -172.79626731 Ry
     Harris-Foulkes estimate   =    -172.79626733 Ry
     estimated scf accuracy    <       0.00000007 Ry

     iteration # 42     ecut=    50.00 Ry     beta= 0.70
     CG style diagonalization
     ethr =  3.42E-10,  avg # of iterations =  5.0

     total cpu time spent up to now is      294.1 secs

     total energy              =    -172.79626751 Ry
     Harris-Foulkes estimate   =    -172.79626754 Ry
     estimated scf accuracy    <       0.00000023 Ry

     iteration # 43     ecut=    50.00 Ry     beta= 0.70
     CG style diagonalization
     ethr =  3.42E-10,  avg # of iterations =  3.8

     total cpu time spent up to now is      300.6 secs

     total energy              =    -172.79626755 Ry
     Harris-Foulkes estimate   =    -172.79626755 Ry
     estimated scf accuracy    <       0.00000003 Ry

     iteration # 44     ecut=    50.00 Ry     beta= 0.70
     CG style diagonalization
     ethr =  1.32E-10,  avg # of iterations =  3.4

     total cpu time spent up to now is      306.6 secs

     total energy              =    -172.79626755 Ry
     Harris-Foulkes estimate   =    -172.79626755 Ry
     estimated scf accuracy    <       0.00000005 Ry

     iteration # 45     ecut=    50.00 Ry     beta= 0.70
     CG style diagonalization
     ethr =  1.32E-10,  avg # of iterations =  3.1

     total cpu time spent up to now is      312.1 secs

     total energy              =    -172.79626755 Ry
     Harris-Foulkes estimate   =    -172.79626755 Ry
     estimated scf accuracy    <       0.00000001 Ry

     iteration # 46     ecut=    50.00 Ry     beta= 0.70
     CG style diagonalization
     ethr =  5.78E-11,  avg # of iterations =  3.3

     total cpu time spent up to now is      317.8 secs

     total energy              =    -172.79626755 Ry
     Harris-Foulkes estimate   =    -172.79626755 Ry
     estimated scf accuracy    <          2.8E-09 Ry

     iteration # 47     ecut=    50.00 Ry     beta= 0.70
     CG style diagonalization
     ethr =  1.45E-11,  avg # of iterations =  3.8

     total cpu time spent up to now is      324.4 secs

     total energy              =    -172.79626755 Ry
     Harris-Foulkes estimate   =    -172.79626755 Ry
     estimated scf accuracy    <          3.0E-09 Ry

     iteration # 48     ecut=    50.00 Ry     beta= 0.70
     CG style diagonalization
     ethr =  1.45E-11,  avg # of iterations =  3.3

     total cpu time spent up to now is      330.2 secs

     total energy              =    -172.79626755 Ry
     Harris-Foulkes estimate   =    -172.79626755 Ry
     estimated scf accuracy    <          2.3E-09 Ry

     iteration # 49     ecut=    50.00 Ry     beta= 0.70
     CG style diagonalization
     ethr =  1.15E-11,  avg # of iterations =  3.0

     total cpu time spent up to now is      335.6 secs

     total energy              =    -172.79626756 Ry
     Harris-Foulkes estimate   =    -172.79626755 Ry
     estimated scf accuracy    <          5.6E-09 Ry

     iteration # 50     ecut=    50.00 Ry     beta= 0.70
     CG style diagonalization
     ethr =  1.15E-11,  avg # of iterations =  4.7

     total cpu time spent up to now is      343.5 secs

     total energy              =    -172.79626755 Ry
     Harris-Foulkes estimate   =    -172.79626757 Ry
     estimated scf accuracy    <       0.00000011 Ry

     iteration # 51     ecut=    50.00 Ry     beta= 0.70
     CG style diagonalization
     ethr =  1.15E-11,  avg # of iterations =  4.3

     total cpu time spent up to now is      350.8 secs

     total energy              =    -172.79626755 Ry
     Harris-Foulkes estimate   =    -172.79626756 Ry
     estimated scf accuracy    <       0.00000002 Ry

     iteration # 52     ecut=    50.00 Ry     beta= 0.70
     CG style diagonalization
     ethr =  1.15E-11,  avg # of iterations =  3.2

     total cpu time spent up to now is      356.4 secs

     total energy              =    -172.79626755 Ry
     Harris-Foulkes estimate   =    -172.79626755 Ry
     estimated scf accuracy    <          4.8E-09 Ry

     iteration # 53     ecut=    50.00 Ry     beta= 0.70
     CG style diagonalization
     ethr =  1.15E-11,  avg # of iterations =  3.3

     total cpu time spent up to now is      362.2 secs

     End of self-consistent calculation

          k = 0.0312 0.0312 0.0312 (  1027 PWs)   bands (ev):

   -41.7203 -18.1137 -18.1128 -18.1128   7.6511  11.0880  11.0880  13.6861
    13.6861  13.7269  15.8770  15.8770  17.6707  17.7588

     occupation numbers 
     1.0000   1.0000   1.0000   1.0000   1.0000   1.0000   1.0000   0.9624
     0.9624   0.9499   0.0000   0.0000   0.0000   0.0000

          k = 0.0312 0.0312 0.0938 (  1031 PWs)   bands (ev):

   -41.7175 -18.1381 -18.1117 -18.1112   7.8097  11.1605  11.1700  13.6591
    13.6747  13.7751  15.7895  15.9138  17.4310  17.5461

     occupation numbers 
     1.0000   1.0000   1.0000   1.0000   1.0000   1.0000   1.0000   0.9690
     0.9653   0.9301   0.0000   0.0000   0.0000   0.0000

          k = 0.0312 0.0312 0.1562 (  1042 PWs)   bands (ev):

   -41.7125 -18.1840 -18.1085 -18.1081   8.1196  11.3028  11.3194  13.6345
    13.6554  13.8422  15.6193  15.9753  17.0833  17.1891

     occupation numbers 
     1.0000   1.0000   1.0000   1.0000   1.0000   1.0000   1.0000   0.9740
     0.9698   0.8905   0.0000   0.0000   0.0000   0.0000

          k = 0.0312 0.0312 0.2188 (  1042 PWs)   bands (ev):

   -41.7059 -18.2435 -18.1044 -18.1041   8.5659  11.5064  11.5087  13.6155
    13.6340  13.9239  15.3763  16.0323  16.6925  16.7732

     occupation numbers 
     1.0000   1.0000   1.0000   1.0000   1.0000   1.0000   1.0000   0.9773
     0.9740   0.8168   0.0001   0.0000   0.0000   0.0000

          k = 0.0312 0.0312 0.2812 (  1054 PWs)   bands (ev):

   -41.6987 -18.3074 -18.1000 -18.0998   9.1249  11.6861  11.7676  13.6070
    13.6160  14.0100  15.0778  16.0205  16.3390  16.3661

     occupation numbers 
     1.0000   1.0000   1.0000   1.0000   1.0000   1.0000   1.0000   0.9786
     0.9772   0.7031   0.0009   0.0000   0.0000   0.0000

          k = 0.0312 0.0312 0.3438 (  1053 PWs)   bands (ev):

   -41.6921 -18.3660 -18.0959 -18.0958   9.7609  11.7989  12.0603  13.6027
    13.6125  14.0858  14.7518  15.8415  16.0164  16.1119

     occupation numbers 
     1.0000   1.0000   1.0000   1.0000   1.0000   1.0000   1.0000   0.9793
     0.9778   0.5756   0.0100   0.0000   0.0000   0.0000

          k = 0.0312 0.0312 0.4062 (  1056 PWs)   bands (ev):

   -41.6870 -18.4104 -18.0927 -18.0927  10.4183  11.7734  12.3499  13.5880
    13.6301  14.1376  14.4474  15.5967  15.7595  15.9384

     occupation numbers 
     1.0000   1.0000   1.0000   1.0000   1.0000   1.0000   1.0000   0.9814
     0.9748   0.4810   0.0869   0.0000   0.0000   0.0000

          k = 0.0312 0.0312 0.4688 (  1046 PWs)   bands (ev):

   -41.6842 -18.4344 -18.0911 -18.0910  10.9972  11.5642  12.5560  13.5665
    13.6478  14.1612  14.2496  15.4256  15.6228  15.8203

     occupation numbers 
     1.0000   1.0000   1.0000   1.0000   1.0000   1.0000   1.0000   0.9840
     0.9714   0.4379   0.2893   0.0001   0.0000   0.0000

          k = 0.0312 0.0938 0.0938 (  1043 PWs)   bands (ev):

   -41.7149 -18.1388 -18.1337 -18.1097   7.9654  11.2320  11.2502  13.6018
    13.6533  13.8469  15.7785  15.8913  17.1698  17.3961

     occupation numbers 
     1.0000   1.0000   1.0000   1.0000   1.0000   1.0000   1.0000   0.9794
     0.9702   0.8870   0.0000   0.0000   0.0000   0.0000

          k = 0.0312 0.0938 0.1562 (  1043 PWs)   bands (ev):

   -41.7098 -18.1821 -18.1325 -18.1065   8.2690  11.3636  11.4038  13.5449
    13.6228  13.9233  15.6533  15.9404  16.8363  17.0642

     occupation numbers 
     1.0000   1.0000   1.0000   1.0000   1.0000   1.0000   1.0000   0.9863
     0.9761   0.8175   0.0000   0.0000   0.0000   0.0000

          k = 0.0312 0.0938 0.2188 (  1046 PWs)   bands (ev):

   -41.7033 -18.2411 -18.1281 -18.1023   8.7050  11.5443  11.6046  13.5032
    13.5868  13.9873  15.4473  15.9999  16.4990  16.6817

     occupation numbers 
     1.0000   1.0000   1.0000   1.0000   1.0000   1.0000   1.0000   0.9899
     0.9815   0.7367   0.0001   0.0000   0.0000   0.0000

          k = 0.0312 0.0938 0.2812 (  1047 PWs)   bands (ev):

   -41.6962 -18.3044 -18.1233 -18.0978   9.2487  11.7308  11.8384  13.4826
    13.5518  14.0230  15.1926  15.9349  16.2822  16.3354

     occupation numbers 
     1.0000   1.0000   1.0000   1.0000   1.0000   1.0000   1.0000   0.9913
     0.9856   0.6827   0.0004   0.0000   0.0000   0.0000

          k = 0.0312 0.0938 0.3438 (  1052 PWs)   bands (ev):

   -41.6896 -18.3625 -18.1188 -18.0936   9.8632  11.8431  12.1042  13.4799
    13.5279  14.0190  14.9204  15.6869  16.0752  16.2280

     occupation numbers 
     1.0000   1.0000   1.0000   1.0000   1.0000   1.0000   1.0000   0.9915
     0.9879   0.6890   0.0029   0.0000   0.0000   0.0000

          k = 0.0312 0.0938 0.4062 (  1052 PWs)   bands (ev):

   -41.6846 -18.4066 -18.1154 -18.0905  10.4925  11.8106  12.3685  13.4579
    13.5460  13.9821  14.6809  15.4346  15.8991  16.1791

     occupation numbers 
     1.0000   1.0000   1.0000   1.0000   1.0000   1.0000   1.0000   0.9928
     0.9862   0.7440   0.0168   0.0001   0.0000   0.0000

          k = 0.0312 0.0938 0.4688 (  1055 PWs)   bands (ev):

   -41.6819 -18.4304 -18.1136 -18.0887  11.0386  11.6051  12.5554  13.4193
    13.5832  13.9431  14.5404  15.2686  15.7977  17.2148

     occupation numbers 
     1.0000   1.0000   1.0000   1.0000   1.0000   1.0000   1.0000   0.9945
     0.9820   0.7947   0.0458   0.0002   0.0000   0.0000

          k = 0.0312 0.1562 0.1562 (  1045 PWs)   bands (ev):

   -41.7049 -18.1833 -18.1721 -18.1031   8.5592  11.4699  11.5686  13.4467
    13.5740  13.9905  15.6583  15.9218  16.5379  16.7866

     occupation numbers 
     1.0000   1.0000   1.0000   1.0000   1.0000   1.0000   1.0000   0.9933
     0.9831   0.7321   0.0000   0.0000   0.0000   0.0000

          k = 0.0312 0.1562 0.2188 (  1048 PWs)   bands (ev):

   -41.6985 -18.2367 -18.1717 -18.0988   8.9729  11.6095  11.7869  13.3666
    13.5185  14.0097  15.5537  15.9561  16.2554  16.5073

     occupation numbers 
     1.0000   1.0000   1.0000   1.0000   1.0000   1.0000   1.0000   0.9963
     0.9887   0.7036   0.0000   0.0000   0.0000   0.0000

          k = 0.0312 0.1562 0.2812 (  1047 PWs)   bands (ev):

   -41.6915 -18.2989 -18.1663 -18.0940   9.4825  11.7506  12.0299  13.3159
    13.4702  13.9648  15.3785  15.8006  16.1943  16.3305

     occupation numbers 
     1.0000   1.0000   1.0000   1.0000   1.0000   1.0000   1.0000   0.9974
     0.9921   0.7675   0.0001   0.0000   0.0000   0.0000

          k = 0.0312 0.1562 0.3438 (  1052 PWs)   bands (ev):

   -41.6851 -18.3561 -18.1612 -18.0896  10.0475  11.8364  12.2724  13.2986
    13.4469  13.8655  15.1776  15.5344  16.1883  16.3342

     occupation numbers 
     1.0000   1.0000   1.0000   1.0000   1.0000   1.0000   1.0000   0.9977
     0.9933   0.8726   0.0004   0.0000   0.0000   0.0000

          k = 0.0312 0.1562 0.4062 (  1054 PWs)   bands (ev):

   -41.6801 -18.3996 -18.1572 -18.0862  10.6102  11.7985  12.4878  13.3060
    13.4680  13.7453  15.0038  15.3044  16.1281  16.4279

     occupation numbers 
     1.0000   1.0000   1.0000   1.0000   1.0000   1.0000   1.0000   0.9976
     0.9922   0.9431   0.0016   0.0002   0.0000   0.0000

          k = 0.0312 0.1562 0.4688 (  1059 PWs)   bands (ev):

   -41.6775 -18.4231 -18.1550 -18.0844  11.0757  11.6233  12.6265  13.3174
    13.5210  13.6469  14.9224  15.1375  16.0778  16.4990

     occupation numbers 
     1.0000   1.0000   1.0000   1.0000   1.0000   1.0000   1.0000   0.9974
     0.9885   0.9715   0.0029   0.0006   0.0000   0.0000

          k = 0.0312 0.2188 0.2188 (  1052 PWs)   bands (ev):

   -41.6922 -18.2374 -18.2219 -18.0941   9.3482  11.6868  12.0303  13.2457
    13.4522  13.9511  15.6129  15.9693  15.9702  16.4041

     occupation numbers 
     1.0000   1.0000   1.0000   1.0000   1.0000   1.0000   1.0000   0.9985
     0.9930   0.7850   0.0000   0.0000   0.0000   0.0000

          k = 0.0312 0.2188 0.2812 (  1051 PWs)   bands (ev):

   -41.6854 -18.2920 -18.2219 -18.0890   9.7976  11.7495  12.3018  13.1575
    13.4156  13.8182  15.5704  15.6805  16.0842  16.4157

     occupation numbers 
     1.0000   1.0000   1.0000   1.0000   1.0000   1.0000   1.0000   0.9992
     0.9947   0.9065   0.0000   0.0000   0.0000   0.0000

          k = 0.0312 0.2188 0.3438 (  1050 PWs)   bands (ev):

   -41.6791 -18.3478 -18.2161 -18.0843  10.2739  11.7620  12.5584  13.1117
    13.4449  13.6481  15.4175  15.4902  16.2128  16.5262

     occupation numbers 
     1.0000   1.0000   1.0000   1.0000   1.0000   1.0000   1.0000   0.9994
     0.9934   0.9713   0.0001   0.0000   0.0000   0.0000

          k = 0.0312 0.2188 0.4062 (  1052 PWs)   bands (ev):

   -41.6743 -18.3904 -18.2114 -18.0807  10.7181  11.6950  12.7486  13.1121
    13.4734  13.5758  15.1978  15.4041  16.2884  16.7035

     occupation numbers 
     1.0000   1.0000   1.0000   1.0000   1.0000   1.0000   1.0000   0.9994
     0.9919   0.9829   0.0004   0.0001   0.0000   0.0000

          k = 0.0312 0.2188 0.4688 (  1062 PWs)   bands (ev):

   -41.6717 -18.4134 -18.2089 -18.0788  11.0491  11.5656  12.8430  13.1496
    13.3475  13.7228  15.0492  15.3386  16.3146  16.8599

     occupation numbers 
     1.0000   1.0000   1.0000   1.0000   1.0000   1.0000   0.9999   0.9992
     0.9968   0.9513   0.0011   0.0001   0.0000   0.0000

          k = 0.0312 0.2812 0.2812 (  1052 PWs)   bands (ev):

   -41.6788 -18.2907 -18.2753 -18.0836  10.1510  11.7186  12.6148  13.0313
    13.4291  13.6185  15.5400  15.7572  16.0275  16.5739

     occupation numbers 
     1.0000   1.0000   1.0000   1.0000   1.0000   1.0000   1.0000   0.9997
     0.9941   0.9768   0.0000   0.0000   0.0000   0.0000

          k = 0.0312 0.2812 0.3438 (  1052 PWs)   bands (ev):

   -41.6727 -18.3389 -18.2749 -18.0786  10.4911  11.6499  12.9128  12.9518
    13.4090  13.5587  15.4336  15.7475  16.1497  16.7762

     occupation numbers 
     1.0000   1.0000   1.0000   1.0000   1.0000   1.0000   0.9999   0.9998
     0.9949   0.9849   0.0001   0.0000   0.0000   0.0000

          k = 0.0312 0.2812 0.4062 (  1056 PWs)   bands (ev):

   -41.6680 -18.3805 -18.2696 -18.0748  10.7717  11.5503  12.9247  13.1073
    13.2383  13.8369  15.2507  15.7246  16.3218  16.9998

     occupation numbers 
     1.0000   1.0000   1.0000   1.0000   1.0000   1.0000   0.9999   0.9994
     0.9985   0.8942   0.0003   0.0000   0.0000   0.0000

          k = 0.0312 0.2812 0.4688 (  1059 PWs)   bands (ev):

   -41.6655 -18.4030 -18.2667 -18.0727  10.9507  11.4567  12.9529  13.0587
    13.2435  14.1507  15.0309  15.7206  16.4369  17.1961

     occupation numbers 
     1.0000   1.0000   1.0000   1.0000   1.0000   1.0000   0.9998   0.9996
     0.9985   0.4570   0.0013   0.0000   0.0000   0.0000

          k = 0.0312 0.3438 0.3438 (  1050 PWs)   bands (ev):

   -41.6667 -18.3352 -18.3243 -18.0733  10.6594  11.5243  12.8362  13.1829
    13.2880  13.7946  15.4799  15.9744  16.0760  17.0329

     occupation numbers 
     1.0000   1.0000   1.0000   1.0000   1.0000   1.0000   0.9999   0.9990
     0.9979   0.9202   0.0000   0.0000   0.0000   0.0000

          k = 0.0312 0.3438 0.4062 (  1052 PWs)   bands (ev):

   -41.6621 -18.3713 -18.3230 -18.0692  10.7690  11.4120  12.7788  12.9952
    13.5718  14.1741  15.4084  16.0012  16.2432  17.2769

     occupation numbers 
     1.0000   1.0000   1.0000   1.0000   1.0000   1.0000   1.0000   0.9998
     0.9834   0.4148   0.0001   0.0000   0.0000   0.0000

          k = 0.0312 0.3438 0.4688 (  1054 PWs)   bands (ev):

   -41.6597 -18.3933 -18.3197 -18.0670  10.8247  11.3427  12.7839  12.8621
    13.7033  14.6435  15.1155  16.0455  16.4075  17.4837

     occupation numbers 
     1.0000   1.0000   1.0000   1.0000   1.0000   1.0000   0.9999   0.9999
     0.9576   0.0220   0.0007   0.0000   0.0000   0.0000

          k = 0.0312 0.4062 0.4062 (  1048 PWs)   bands (ev):

   -41.6577 -18.3664 -18.3615 -18.0650  10.7404  11.3084  12.6894  12.8233
    13.9822  14.5161  15.6132  16.0740  16.2419  17.5129

     occupation numbers 
     1.0000   1.0000   1.0000   1.0000   1.0000   1.0000   1.0000   0.9999
     0.7439   0.0543   0.0000   0.0000   0.0000   0.0000

          k = 0.0312 0.4062 0.4688 (  1048 PWs)   bands (ev):

   -41.6552 -18.3859 -18.3600 -18.0627  10.7173  11.2538  12.6653  12.7113
    14.1930  14.8900  15.5023  16.1924  16.3054  17.7045

     occupation numbers 
     1.0000   1.0000   1.0000   1.0000   1.0000   1.0000   1.0000   1.0000
     0.3816   0.0037   0.0000   0.0000   0.0000   0.0000

          k = 0.0312 0.4688 0.4688 (  1048 PWs)   bands (ev):

   -41.6528 -18.3821 -18.3815 -18.0604  10.6572  11.2060  12.6107  12.6260
    14.5215  15.0192  15.8951  15.9948  16.3742  17.8160

     occupation numbers 
     1.0000   1.0000   1.0000   1.0000   1.0000   1.0000   1.0000   1.0000
     0.0523   0.0014   0.0000   0.0000   0.0000   0.0000

          k = 0.0938 0.0938 0.0938 (  1048 PWs)   bands (ev):

   -41.7122 -18.1390 -18.1320 -18.1320   8.1185  11.3158  11.3158  13.5824
    13.5824  13.9109  15.8251  15.8251  16.8794  17.5286

     occupation numbers 
     1.0000   1.0000   1.0000   1.0000   1.0000   1.0000   1.0000   0.9821
     0.9821   0.8306   0.0000   0.0000   0.0000   0.0000

          k = 0.0938 0.0938 0.1562 (  1049 PWs)   bands (ev):

   -41.7072 -18.1801 -18.1322 -18.1289   8.4167  11.4437  11.4676  13.5067
    13.5469  13.9698  15.6968  15.9042  16.5728  17.1685

     occupation numbers 
     1.0000   1.0000   1.0000   1.0000   1.0000   1.0000   1.0000   0.9897
     0.9862   0.7609   0.0000   0.0000   0.0000   0.0000

          k = 0.0938 0.0938 0.2188 (  1048 PWs)   bands (ev):

   -41.7007 -18.2386 -18.1274 -18.1248   8.8439  11.6276  11.6554  13.4501
    13.5003  13.9935  15.5149  15.9707  16.3275  16.7530

     occupation numbers 
     1.0000   1.0000   1.0000   1.0000   1.0000   1.0000   1.0000   0.9932
     0.9901   0.7277   0.0000   0.0000   0.0000   0.0000

          k = 0.0938 0.0938 0.2812 (  1047 PWs)   bands (ev):

   -41.6937 -18.3015 -18.1220 -18.1204   9.3743  11.8301  11.8560  13.4262
    13.4465  13.9692  15.2952  15.9002  16.2741  16.3509

     occupation numbers 
     1.0000   1.0000   1.0000   1.0000   1.0000   1.0000   1.0000   0.9942
     0.9933   0.7616   0.0002   0.0000   0.0000   0.0000

          k = 0.0938 0.0938 0.3438 (  1055 PWs)   bands (ev):

   -41.6872 -18.3591 -18.1170 -18.1163   9.9699  11.9259  12.1103  13.3847
    13.4474  13.9097  15.0638  15.7144  16.0107  16.3559

     occupation numbers 
     1.0000   1.0000   1.0000   1.0000   1.0000   1.0000   1.0000   0.9958
[...]
    13.2192  13.8964  15.0736  15.7077  16.0241  17.4983

     occupation numbers 
     1.0000   1.0000   1.0000   1.0000   1.0000   1.0000   1.0000   0.9999
     0.9987   0.8451   0.0010   0.0000   0.0000   0.0000

          k = 0.1562 0.3438 0.3438 (  1046 PWs)   bands (ev):

   -41.6597 -18.3272 -18.3188 -18.1382  11.0612  11.8350  12.7610  12.9242
    13.2165  13.3981  15.4575  15.8262  16.2570  17.3669

     occupation numbers 
     1.0000   1.0000   1.0000   1.0000   1.0000   1.0000   1.0000   0.9999
     0.9988   0.9953   0.0001   0.0000   0.0000   0.0000

          k = 0.1562 0.3438 0.4062 (  1046 PWs)   bands (ev):

   -41.6551 -18.3644 -18.3169 -18.1341  11.1517  11.7235  12.7055  12.8154
    13.4405  13.7926  15.3149  15.7094  16.3171  17.5051

     occupation numbers 
     1.0000   1.0000   1.0000   1.0000   1.0000   1.0000   1.0000   0.9999
     0.9936   0.9213   0.0002   0.0000   0.0000   0.0000

          k = 0.1562 0.3438 0.4688 (  1043 PWs)   bands (ev):

   -41.6526 -18.3864 -18.3139 -18.1318  11.1864  11.6592  12.6968  12.7351
    13.5388  14.2395  15.0488  15.6535  16.3242  17.6067

     occupation numbers 
     1.0000   1.0000   1.0000   1.0000   1.0000   1.0000   1.0000   1.0000
     0.9869   0.3048   0.0011   0.0000   0.0000   0.0000

          k = 0.1562 0.4062 0.4062 (  1046 PWs)   bands (ev):

   -41.6506 -18.3597 -18.3560 -18.1299  11.1160  11.6257  12.6325  12.7174
    13.8440  14.0980  15.3159  15.5311  16.4654  17.6548

     occupation numbers 
     1.0000   1.0000   1.0000   1.0000   1.0000   1.0000   1.0000   1.0000
     0.8891   0.5535   0.0002   0.0000   0.0000   0.0000

          k = 0.1562 0.4062 0.4688 (  1040 PWs)   bands (ev):

   -41.6481 -18.3798 -18.3544 -18.1277  11.0856  11.5750  12.6093  12.6398
    14.0244  14.5501  15.0791  15.4605  16.5181  17.7821

     occupation numbers 
     1.0000   1.0000   1.0000   1.0000   1.0000   1.0000   1.0000   1.0000
     0.6804   0.0428   0.0009   0.0001   0.0000   0.0000

          k = 0.1562 0.4688 0.4688 (  1040 PWs)   bands (ev):

   -41.6457 -18.3764 -18.3760 -18.1254  11.0277  11.5289  12.5651  12.5763
    14.4450  14.7766  15.1070  15.1697  16.5958  17.9518

     occupation numbers 
     1.0000   1.0000   1.0000   1.0000   1.0000   1.0000   1.0000   1.0000
     0.0883   0.0084   0.0007   0.0005   0.0000   0.0000

          k = 0.2188 0.2188 0.2188 (  1039 PWs)   bands (ev):

   -41.6789 -18.2255 -18.2123 -18.2123  10.1079  12.2013  12.2013  13.0715
    13.0715  13.2769  15.8821  15.8824  16.6345  16.7442

     occupation numbers 
     1.0000   1.0000   1.0000   1.0000   1.0000   1.0000   1.0000   0.9996
     0.9996   0.9981   0.0000   0.0000   0.0000   0.0000

          k = 0.2188 0.2188 0.2812 (  1046 PWs)   bands (ev):

   -41.6723 -18.2775 -18.2124 -18.2076  10.5271  12.2935  12.3841  12.9846
    12.9862  13.0819  15.8118  15.8894  16.4108  16.8980

     occupation numbers 
     1.0000   1.0000   1.0000   1.0000   1.0000   1.0000   1.0000   0.9998
     0.9998   0.9995   0.0000   0.0000   0.0000   0.0000

          k = 0.2188 0.2188 0.3438 (  1048 PWs)   bands (ev):

   -41.6661 -18.3323 -18.2053 -18.2032  10.9427  12.3419  12.3861  12.9046
    13.0108  13.1209  15.7161  15.7223  16.1696  17.1492

     occupation numbers 
     1.0000   1.0000   1.0000   1.0000   1.0000   1.0000   1.0000   0.9999
     0.9997   0.9994   0.0000   0.0000   0.0000   0.0000

          k = 0.2188 0.2188 0.4062 (  1051 PWs)   bands (ev):

   -41.6614 -18.3741 -18.1998 -18.1998  11.2891  12.1479  12.4666  12.8356
    13.0900  13.3765  15.4172  15.6144  16.0301  17.3459

     occupation numbers 
     1.0000   1.0000   1.0000   1.0000   1.0000   1.0000   1.0000   0.9999
     0.9995   0.9960   0.0001   0.0000   0.0000   0.0000

          k = 0.2188 0.2188 0.4688 (  1044 PWs)   bands (ev):

   -41.6589 -18.3966 -18.1980 -18.1967  11.5204  11.9694  12.5181  12.7914
    13.1513  13.6469  15.1228  15.5495  15.9696  17.4482

     occupation numbers 
     1.0000   1.0000   1.0000   1.0000   1.0000   1.0000   1.0000   0.9999
     0.9992   0.9715   0.0007   0.0000   0.0000   0.0000

          k = 0.2188 0.2812 0.2812 (  1046 PWs)   bands (ev):

   -41.6657 -18.2744 -18.2655 -18.2039  10.9062  12.3123  12.6311  12.8500
    12.8719  12.9440  15.7426  15.8532  16.4428  16.9261

     occupation numbers 
     1.0000   1.0000   1.0000   1.0000   1.0000   1.0000   1.0000   0.9999
     0.9999   0.9998   0.0000   0.0000   0.0000   0.0000

          k = 0.2188 0.2812 0.3438 (  1046 PWs)   bands (ev):

   -41.6597 -18.3247 -18.2631 -18.1983  11.2410  12.2198  12.6569  12.7997
    12.9567  13.0290  15.5853  15.7259  16.3800  17.1361

     occupation numbers 
     1.0000   1.0000   1.0000   1.0000   1.0000   1.0000   1.0000   0.9999
     0.9998   0.9997   0.0000   0.0000   0.0000   0.0000

          k = 0.2188 0.2812 0.4062 (  1047 PWs)   bands (ev):

   -41.6550 -18.3660 -18.2582 -18.1940  11.4656  12.0773  12.6203  12.7556
    13.0449  13.3940  15.3397  15.5754  16.3227  17.3650

     occupation numbers 
     1.0000   1.0000   1.0000   1.0000   1.0000   1.0000   1.0000   1.0000
     0.9996   0.9955   0.0001   0.0000   0.0000   0.0000

          k = 0.2188 0.2812 0.4688 (  1042 PWs)   bands (ev):

   -41.6525 -18.3883 -18.2556 -18.1916  11.5784  11.9701  12.6085  12.7335
    13.1188  13.7296  15.0571  15.5024  16.2933  17.4985

     occupation numbers 
     1.0000   1.0000   1.0000   1.0000   1.0000   1.0000   1.0000   1.0000
     0.9994   0.9490   0.0011   0.0000   0.0000   0.0000

          k = 0.2188 0.3438 0.3438 (  1045 PWs)   bands (ev):

   -41.6537 -18.3204 -18.3142 -18.1929  11.4348  12.0759  12.7038  12.7747
    13.0998  13.1404  15.4515  15.6216  16.5219  17.2622

     occupation numbers 
     1.0000   1.0000   1.0000   1.0000   1.0000   1.0000   1.0000   1.0000
     0.9995   0.9993   0.0001   0.0000   0.0000   0.0000

          k = 0.2188 0.3438 0.4062 (  1047 PWs)   bands (ev):

   -41.6491 -18.3585 -18.3118 -18.1886  11.5041  11.9637  12.6523  12.7177
    13.2639  13.5381  15.2721  15.4717  16.5699  17.4705

     occupation numbers 
     1.0000   1.0000   1.0000   1.0000   1.0000   1.0000   1.0000   1.0000
     0.9982   0.9870   0.0002   0.0001   0.0000   0.0000

          k = 0.2188 0.3438 0.4688 (  1046 PWs)   bands (ev):

   -41.6466 -18.3806 -18.3089 -18.1864  11.5140  11.9039  12.6362  12.6693
    13.3573  13.9373  15.0018  15.4105  16.5789  17.6151

     occupation numbers 
     1.0000   1.0000   1.0000   1.0000   1.0000   1.0000   1.0000   1.0000
     0.9965   0.8016   0.0016   0.0001   0.0000   0.0000

          k = 0.2188 0.4062 0.4062 (  1044 PWs)   bands (ev):

   -41.6446 -18.3540 -18.3513 -18.1845  11.4644  11.8809  12.5927  12.6595
    13.6853  13.7346  15.2362  15.2542  16.7091  17.6564

     occupation numbers 
     1.0000   1.0000   1.0000   1.0000   1.0000   1.0000   1.0000   1.0000
     0.9626   0.9471   0.0003   0.0003   0.0000   0.0000

          k = 0.2188 0.4062 0.4688 (  1042 PWs)   bands (ev):

   -41.6421 -18.3747 -18.3495 -18.1823  11.4270  11.8375  12.5729  12.5993
    13.8042  14.1591  14.9531  15.2329  16.7596  17.8067

     occupation numbers 
     1.0000   1.0000   1.0000   1.0000   1.0000   1.0000   1.0000   1.0000
     0.9149   0.4418   0.0023   0.0003   0.0000   0.0000

          k = 0.2188 0.4688 0.4688 (  1029 PWs)   bands (ev):

   -41.6396 -18.3716 -18.3713 -18.1801  11.3738  11.7991  12.5358  12.5460
    14.2308  14.3177  14.8001  15.0839  16.8331  17.9723

     occupation numbers 
     1.0000   1.0000   1.0000   1.0000   1.0000   1.0000   1.0000   1.0000
     0.3184   0.1978   0.0071   0.0009   0.0000   0.0000

          k = 0.2812 0.2812 0.2812 (  1045 PWs)   bands (ev):

   -41.6592 -18.2687 -18.2606 -18.2606  11.3015  12.5733  12.6272  12.6272
    12.8024  12.8024  15.7089  15.7089  16.7578  16.7578

     occupation numbers 
     1.0000   1.0000   1.0000   1.0000   1.0000   1.0000   1.0000   1.0000
     0.9999   0.9999   0.0000   0.0000   0.0000   0.0000

          k = 0.2812 0.2812 0.3438 (  1038 PWs)   bands (ev):

   -41.6532 -18.3177 -18.2582 -18.2560  11.6246  12.3496  12.6130  12.7459
    12.7897  12.9557  15.5504  15.5589  16.6673  17.0882

     occupation numbers 
     1.0000   1.0000   1.0000   1.0000   1.0000   1.0000   1.0000   1.0000
     0.9999   0.9998   0.0000   0.0000   0.0000   0.0000

          k = 0.2812 0.2812 0.4062 (  1042 PWs)   bands (ev):

   -41.6486 -18.3588 -18.2526 -18.2525  11.7774  12.1830  12.5939  12.7084
    12.9215  13.3088  15.2767  15.4430  16.6232  17.3749

     occupation numbers 
     1.0000   1.0000   1.0000   1.0000   1.0000   1.0000   1.0000   1.0000
     0.9999   0.9976   0.0002   0.0001   0.0000   0.0000

          k = 0.2812 0.2812 0.4688 (  1045 PWs)   bands (ev):

   -41.6461 -18.3810 -18.2507 -18.2494  11.8157  12.0941  12.5806  12.6899
    13.0280  13.6355  14.9987  15.3819  16.6052  17.5396

     occupation numbers 
     1.0000   1.0000   1.0000   1.0000   1.0000   1.0000   1.0000   1.0000
     0.9997   0.9738   0.0017   0.0001   0.0000   0.0000

          k = 0.2812 0.3438 0.3438 (  1038 PWs)   bands (ev):

   -41.6472 -18.3131 -18.3092 -18.2515  11.8799  12.2444  12.6513  12.7436
    12.8145  13.0390  15.4031  15.4276  16.8488  17.2175

     occupation numbers 
     1.0000   1.0000   1.0000   1.0000   1.0000   1.0000   1.0000   1.0000
     0.9999   0.9997   0.0001   0.0001   0.0000   0.0000

          k = 0.2812 0.3438 0.4062 (  1040 PWs)   bands (ev):

   -41.6426 -18.3522 -18.3062 -18.2473  11.9071  12.1596  12.6136  12.7019
    13.0176  13.3395  15.1818  15.3124  16.8856  17.4752

     occupation numbers 
     1.0000   1.0000   1.0000   1.0000   1.0000   1.0000   1.0000   1.0000
     0.9997   0.9970   0.0004   0.0002   0.0000   0.0000

          k = 0.2812 0.3438 0.4688 (  1043 PWs)   bands (ev):

   -41.6401 -18.3742 -18.3036 -18.2449  11.8728  12.1145  12.6101  12.6536
    13.1391  13.6705  14.9312  15.2626  16.8917  17.6479

     occupation numbers 
     1.0000   1.0000   1.0000   1.0000   1.0000   1.0000   1.0000   1.0000
     0.9993   0.9663   0.0027   0.0002   0.0000   0.0000

          k = 0.2812 0.4062 0.4062 (  1039 PWs)   bands (ev):

   -41.6380 -18.3479 -18.3462 -18.2432  11.8724  12.1258  12.5622  12.6575
    13.3739  13.4717  15.0623  15.1607  17.0252  17.6722

     occupation numbers 
     1.0000   1.0000   1.0000   1.0000   1.0000   1.0000   1.0000   1.0000
     0.9961   0.9920   0.0010   0.0005   0.0000   0.0000

          k = 0.2812 0.4062 0.4688 (  1041 PWs)   bands (ev):

   -41.6356 -18.3691 -18.3443 -18.2410  11.8303  12.0978  12.5540  12.5930
    13.5067  13.7803  14.8492  15.1141  17.0721  17.8330

     occupation numbers 
     1.0000   1.0000   1.0000   1.0000   1.0000   1.0000   1.0000   1.0000
     0.9897   0.9276   0.0049   0.0007   0.0000   0.0000

          k = 0.2812 0.4688 0.4688 (  1036 PWs)   bands (ev):

   -41.6331 -18.3664 -18.3662 -18.2389  11.7928  12.0827  12.5185  12.5345
    13.8595  13.8640  14.7065  15.0195  17.1433  17.9909

     occupation numbers 
     1.0000   1.0000   1.0000   1.0000   1.0000   1.0000   1.0000   1.0000
     0.8774   0.8738   0.0140   0.0014   0.0000   0.0000

          k = 0.3438 0.3438 0.3438 (  1039 PWs)   bands (ev):

   -41.6412 -18.3071 -18.3046 -18.3046  12.1855  12.3577  12.6164  12.6164
    12.9225  12.9225  15.2774  15.2774  17.2052  17.2052

     occupation numbers 
     1.0000   1.0000   1.0000   1.0000   1.0000   1.0000   1.0000   1.0000
     0.9999   0.9999   0.0002   0.0002   0.0000   0.0000

          k = 0.3438 0.3438 0.4062 (  1039 PWs)   bands (ev):

   -41.6366 -18.3464 -18.3010 -18.3010  12.1477  12.3326  12.6098  12.8076
    12.8264  13.2103  15.0704  15.1804  17.2059  17.5251

     occupation numbers 
     1.0000   1.0000   1.0000   1.0000   1.0000   1.0000   1.0000   0.9999
     0.9999   0.9988   0.0010   0.0004   0.0000   0.0000

          k = 0.3438 0.3438 0.4688 (  1044 PWs)   bands (ev):

   -41.6341 -18.3684 -18.2991 -18.2982  12.1181  12.2415  12.6356  12.7142
    12.9902  13.5036  14.8616  15.1339  17.2086  17.7181

     occupation numbers 
     1.0000   1.0000   1.0000   1.0000   1.0000   1.0000   1.0000   1.0000
     0.9998   0.9899   0.0045   0.0006   0.0000   0.0000

          k = 0.3438 0.4062 0.4062 (  1038 PWs)   bands (ev):

   -41.6320 -18.3423 -18.3415 -18.2970  12.1711  12.3946  12.5544  12.7578
    13.0801  13.2371  14.9489  15.0477  17.3807  17.6916

     occupation numbers 
     1.0000   1.0000   1.0000   1.0000   1.0000   1.0000   1.0000   1.0000
     0.9995   0.9986   0.0024   0.0012   0.0000   0.0000

          k = 0.3438 0.4062 0.4688 (  1043 PWs)   bands (ev):

   -41.6295 -18.3639 -18.3395 -18.2948  12.1928  12.3087  12.5830  12.6688
    13.2036  13.4660  14.7864  14.9986  17.4205  17.8616

     occupation numbers 
     1.0000   1.0000   1.0000   1.0000   1.0000   1.0000   1.0000   1.0000
     0.9989   0.9923   0.0078   0.0017   0.0000   0.0000

          k = 0.3438 0.4688 0.4688 (  1042 PWs)   bands (ev):

   -41.6270 -18.3615 -18.3615 -18.2928  12.2268  12.3315  12.5265  12.5714
    13.4767  13.4915  14.6821  14.9216  17.4952  18.0071

     occupation numbers 
     1.0000   1.0000   1.0000   1.0000   1.0000   1.0000   1.0000   1.0000
     0.9917   0.9907   0.0167   0.0029   0.0000   0.0000

          k = 0.4062 0.4062 0.4062 (  1046 PWs)   bands (ev):

   -41.6274 -18.3379 -18.3379 -18.3379  12.2667  12.5792  12.5792  12.9245
    13.0219  13.0219  14.8892  14.8892  17.7079  17.7079

     occupation numbers 
     1.0000   1.0000   1.0000   1.0000   1.0000   1.0000   1.0000   0.9999
     0.9997   0.9997   0.0037   0.0037   0.0000   0.0000

          k = 0.4062 0.4062 0.4688 (  1048 PWs)   bands (ev):

   -41.6249 -18.3600 -18.3360 -18.3356  12.3507  12.4696  12.6306  12.8669
    12.9925  13.2592  14.7431  14.8639  17.7170  17.9104

     occupation numbers 
     1.0000   1.0000   1.0000   1.0000   1.0000   1.0000   1.0000   0.9999
     0.9998   0.9983   0.0107   0.0044   0.0000   0.0000

          k = 0.4062 0.4688 0.4688 (  1056 PWs)   bands (ev):

   -41.6224 -18.3578 -18.3578 -18.3338  12.4547  12.5687  12.5738  12.7476
    13.1787  13.1894  14.6751  14.7889  17.8219  18.0192

     occupation numbers 
     1.0000   1.0000   1.0000   1.0000   1.0000   1.0000   1.0000   1.0000
     0.9991   0.9990   0.0175   0.0077   0.0000   0.0000

          k = 0.4688 0.4688 0.4688 (  1064 PWs)   bands (ev):

   -41.6199 -18.3559 -18.3559 -18.3558  12.5633  12.6336  12.6336  12.9897
    12.9897  13.0117  14.6733  14.6733  18.0257  18.0257

     occupation numbers 
     1.0000   1.0000   1.0000   1.0000   1.0000   1.0000   1.0000   0.9998
     0.9998   0.9997   0.0178   0.0178   0.0000   0.0000

     the Fermi energy is    14.1273 ev

!    total energy              =    -172.79626755 Ry
     Harris-Foulkes estimate   =    -172.79626755 Ry
     estimated scf accuracy    <          4.0E-10 Ry

     The total energy is the sum of the following terms:

     one-electron contribution =     -28.76039197 Ry
     hartree contribution      =      28.52824949 Ry
     xc contribution           =     -39.67645394 Ry
     ewald contribution        =    -132.88028250 Ry
     smearing contrib. (-TS)   =      -0.00738864 Ry

     convergence has been achieved in  53 iterations

     Forces acting on atoms (cartesian axes, Ry/au):

     atom    1 type  1   force =     0.00000000    0.00000000    0.00000000
     atom    2 type  2   force =     0.00000000    0.00000000    0.00000000
     The non-local contrib.  to forces
     atom    1 type  1   force =     0.00000000    0.00000000    0.00000000
     atom    2 type  2   force =     0.00000000    0.00000000    0.00000000
     The ionic contribution  to forces
     atom    1 type  1   force =    -0.00000000   -0.00000000   -0.00000000
     atom    2 type  2   force =     0.00000000    0.00000000    0.00000000
     The local contribution  to forces
     atom    1 type  1   force =    -0.00000000    0.00000000   -0.00000000
     atom    2 type  2   force =     0.00000000    0.00000000    0.00000000
     The core correction contribution to forces
     atom    1 type  1   force =     0.00000000    0.00000000   -0.00000000
     atom    2 type  2   force =     0.00000000    0.00000000    0.00000000
     The Hubbard contrib.    to forces
     atom    1 type  1   force =     0.00000000    0.00000000    0.00000000
     atom    2 type  2   force =     0.00000000    0.00000000    0.00000000
     The SCF correction term to forces
     atom    1 type  1   force =     0.00000000    0.00000000    0.00000000
     atom    2 type  2   force =    -0.00000000    0.00000000   -0.00000000

     Total force =     0.000000     Total SCF correction =     0.000000

     BFGS Geometry Optimization

     bfgs converged in   1 scf cycles and   0 bfgs steps
     (criteria: energy <  1.0E-06 Ry, force <  1.0E-05 Ry/Bohr)

     End of BFGS Geometry Optimization

     Final energy   =    -172.7962675534 Ry
Begin final coordinates

ATOMIC_POSITIONS (alat)
Fe       0.000000000   0.000000000   0.000000000
Ti       0.500000000   0.500000000   0.500000000
End final coordinates



     Writing output data file 1.save/

     init_run     :      4.53s CPU      2.64s WALL (       1 calls)
     electrons    :    704.71s CPU    359.26s WALL (       1 calls)
     forces       :      1.52s CPU      0.81s WALL (       1 calls)

     Called by init_run:
     wfcinit      :      3.47s CPU      1.76s WALL (       1 calls)
     wfcinit:atom :      0.09s CPU      0.05s WALL (     120 calls)
     wfcinit:wfcr :      2.94s CPU      1.48s WALL (     120 calls)
     potinit      :      0.03s CPU      0.02s WALL (       1 calls)
     hinit0       :      0.69s CPU      0.66s WALL (       1 calls)

     Called by electrons:
     c_bands      :    608.41s CPU    308.86s WALL (      53 calls)
     sum_band     :     78.18s CPU     40.53s WALL (      53 calls)
     v_of_rho     :      0.41s CPU      0.21s WALL (      54 calls)
     v_h          :      0.12s CPU      0.06s WALL (      54 calls)
     v_xc         :      0.29s CPU      0.15s WALL (      55 calls)
     newd         :     17.41s CPU      9.51s WALL (      54 calls)
     mix_rho      :      0.41s CPU      0.21s WALL (      53 calls)

     Called by c_bands:
     init_us_2    :     11.02s CPU      5.63s WALL (   12960 calls)
     ccgdiagg     :    467.67s CPU    237.93s WALL (    6360 calls)
     wfcrot       :    136.95s CPU     68.96s WALL (    6360 calls)

     Called by sum_band:
     sum_band:bec :      0.29s CPU      0.14s WALL (    6360 calls)
     addusdens    :     17.02s CPU      9.68s WALL (      53 calls)

     Called by *cgdiagg:
     h_psi        :    436.23s CPU    221.35s WALL (  267702 calls)
     s_psi        :     80.26s CPU     40.79s WALL (  529044 calls)
     cdiaghg      :      1.05s CPU      0.53s WALL (    6360 calls)

     Called by h_psi:
     h_psi:pot    :    433.23s CPU    219.80s WALL (  267702 calls)
     h_psi:calbec :     46.80s CPU     23.59s WALL (  267702 calls)
     vloc_psi     :    337.11s CPU    171.34s WALL (  267702 calls)
     add_vuspsi   :     46.76s CPU     23.63s WALL (  267702 calls)
     h_1psi       :    365.68s CPU    185.94s WALL (  261342 calls)

     General routines
     calbec       :     91.06s CPU     46.09s WALL (  535884 calls)
     fft          :      0.55s CPU      0.28s WALL (     327 calls)
     ffts         :      0.07s CPU      0.04s WALL (     107 calls)
     fftw         :    353.81s CPU    179.66s WALL (  790284 calls)
     interpolate  :      0.14s CPU      0.07s WALL (      54 calls)

     Parallel routines

     PWSCF        : 11m51.83s CPU     6m 3.82s WALL


   This run was terminated on:  17:39:54  21Jun2019            

=------------------------------------------------------------------------------=
   JOB DONE.
=------------------------------------------------------------------------------=
