
     Program PWSCF v.6.3 starts on 20Jun2019 at 16:20: 7 

     This program is part of the open-source Quantum ESPRESSO suite
     for quantum simulation of materials; please cite
         "P. Giannozzi et al., J. Phys.:Condens. Matter 21 395502 (2009);
         "P. Giannozzi et al., J. Phys.:Condens. Matter 29 465901 (2017);
          URL http://www.quantum-espresso.org", 
     in publications or presentations arising from this work. More details at
     http://www.quantum-espresso.org/quote

     Parallel version (MPI & OpenMP), running on       2 processor cores
     Number of MPI processes:                 1
     Threads/MPI process:                     2

     MPI processes distributed on     1 nodes
     Reading input from /home/bokhamala/FeTi/FeTi_relax.in
Warning: card  &CELL ignored
Warning: card  CELL_FACTOR = 10 ignored
Warning: card  CELL_DYNAMICS='DAMP-W', ignored
Warning: card  CELL_DOFREE = 'VOLUME' ignored
Warning: card  / ignored

     Current dimensions of program PWSCF are:
     Max number of different atomic species (ntypx) = 10
     Max number of k-points (npk) =  40000
     Max angular momentum in pseudopotentials (lmaxx) =  3
               file Fe.pz-nd-rrkjus.UPF: wavefunction(s)  4S renormalized

     Subspace diagonalization in iterative solution of the eigenvalue problem:
     a serial algorithm will be used


     G-vector sticks info
     --------------------
     sticks:   dense  smooth     PW     G-vecs:    dense   smooth      PW
     Sum         997     497    161                23703     8385    1503



     bravais-lattice index     =            1
     lattice parameter (alat)  =       5.6000  a.u.
     unit-cell volume          =     175.6160 (a.u.)^3
     number of atoms/cell      =            2
     number of atomic types    =            2
     number of electrons       =        19.50
     number of Kohn-Sham states=           14
     kinetic-energy cutoff     =      50.0000  Ry
     charge density cutoff     =     400.0000  Ry
     convergence threshold     =      1.0E-06
     mixing beta               =       0.7000
     number of iterations used =            8  plain     mixing
     Exchange-correlation      = SLA PZ NOGX NOGC ( 1  1  0  0 0 0)
     nstep                     =           50


     celldm(1)=   5.600000  celldm(2)=   0.000000  celldm(3)=   0.000000
     celldm(4)=   0.000000  celldm(5)=   0.000000  celldm(6)=   0.000000

     crystal axes: (cart. coord. in units of alat)
               a(1) = (   1.000000   0.000000   0.000000 )  
               a(2) = (   0.000000   1.000000   0.000000 )  
               a(3) = (   0.000000   0.000000   1.000000 )  

     reciprocal axes: (cart. coord. in units 2 pi/alat)
               b(1) = (  1.000000  0.000000  0.000000 )  
               b(2) = (  0.000000  1.000000  0.000000 )  
               b(3) = (  0.000000  0.000000  1.000000 )  


     PseudoPot. # 1 for Fe read from file:
     /shared/tools/qe/qe-6.3/pseudo/Fe.pz-nd-rrkjus.UPF
     MD5 check sum: b5eb2b1fd79b39c9eac5f7a31bc313a7
     Pseudo is Ultrasoft + core correction, Zval =  8.0
     Generated by new atomic code, or converted to UPF format
     Using radial grid of  957 points,  6 beta functions with: 
                l(1) =   0
                l(2) =   0
                l(3) =   1
                l(4) =   1
                l(5) =   2
                l(6) =   2
     Q(r) pseudized with 0 coefficients 


     PseudoPot. # 2 for Ti read from file:
     /shared/tools/qe/qe-6.3/pseudo/Ti.pz-sp-van_ak.UPF
     MD5 check sum: 93c5ef60b250b0ab110b997ad8a4342c
     Pseudo is Ultrasoft, Zval = 12.0
     Generated by new atomic code, or converted to UPF format
     Using radial grid of  851 points,  6 beta functions with: 
                l(1) =   0
                l(2) =   0
                l(3) =   1
                l(4) =   1
                l(5) =   2
                l(6) =   2
     Q(r) pseudized with  8 coefficients,  rinner =    1.000   1.000   1.000
                                                       1.000   1.000

     atomic species   valence    mass     pseudopotential
        Fe             8.00    55.84500     Fe( 1.00)
        Ti            12.00    47.86700     Ti( 1.00)

     48 Sym. Ops., with inversion, found


                                    s                        frac. trans.

      isym =  1     identity                                     

 cryst.   s( 1) = (     1          0          0      )
                  (     0          1          0      )
                  (     0          0          1      )

 cart.    s( 1) = (  1.0000000  0.0000000  0.0000000 )
                  (  0.0000000  1.0000000  0.0000000 )
                  (  0.0000000  0.0000000  1.0000000 )


      isym =  2     180 deg rotation - cart. axis [0,0,1]        

 cryst.   s( 2) = (    -1          0          0      )
                  (     0         -1          0      )
                  (     0          0          1      )

 cart.    s( 2) = ( -1.0000000  0.0000000  0.0000000 )
                  (  0.0000000 -1.0000000  0.0000000 )
                  (  0.0000000  0.0000000  1.0000000 )


      isym =  3     180 deg rotation - cart. axis [0,1,0]        

 cryst.   s( 3) = (    -1          0          0      )
                  (     0          1          0      )
                  (     0          0         -1      )

 cart.    s( 3) = ( -1.0000000  0.0000000  0.0000000 )
                  (  0.0000000  1.0000000  0.0000000 )
                  (  0.0000000  0.0000000 -1.0000000 )


      isym =  4     180 deg rotation - cart. axis [1,0,0]        

 cryst.   s( 4) = (     1          0          0      )
                  (     0         -1          0      )
                  (     0          0         -1      )

 cart.    s( 4) = (  1.0000000  0.0000000  0.0000000 )
                  (  0.0000000 -1.0000000  0.0000000 )
                  (  0.0000000  0.0000000 -1.0000000 )


      isym =  5     180 deg rotation - cart. axis [1,1,0]        

 cryst.   s( 5) = (     0          1          0      )
                  (     1          0          0      )
                  (     0          0         -1      )

 cart.    s( 5) = (  0.0000000  1.0000000  0.0000000 )
                  (  1.0000000  0.0000000  0.0000000 )
                  (  0.0000000  0.0000000 -1.0000000 )


      isym =  6     180 deg rotation - cart. axis [1,-1,0]       

 cryst.   s( 6) = (     0         -1          0      )
                  (    -1          0          0      )
                  (     0          0         -1      )

 cart.    s( 6) = (  0.0000000 -1.0000000  0.0000000 )
                  ( -1.0000000  0.0000000  0.0000000 )
                  (  0.0000000  0.0000000 -1.0000000 )


      isym =  7      90 deg rotation - cart. axis [0,0,-1]       

 cryst.   s( 7) = (     0         -1          0      )
                  (     1          0          0      )
                  (     0          0          1      )

 cart.    s( 7) = (  0.0000000  1.0000000  0.0000000 )
                  ( -1.0000000  0.0000000  0.0000000 )
                  (  0.0000000  0.0000000  1.0000000 )


      isym =  8      90 deg rotation - cart. axis [0,0,1]        

 cryst.   s( 8) = (     0          1          0      )
                  (    -1          0          0      )
                  (     0          0          1      )

 cart.    s( 8) = (  0.0000000 -1.0000000  0.0000000 )
                  (  1.0000000  0.0000000  0.0000000 )
                  (  0.0000000  0.0000000  1.0000000 )


      isym =  9     180 deg rotation - cart. axis [1,0,1]        

 cryst.   s( 9) = (     0          0          1      )
                  (     0         -1          0      )
                  (     1          0          0      )

 cart.    s( 9) = (  0.0000000  0.0000000  1.0000000 )
                  (  0.0000000 -1.0000000  0.0000000 )
                  (  1.0000000  0.0000000  0.0000000 )


      isym = 10     180 deg rotation - cart. axis [-1,0,1]       

 cryst.   s(10) = (     0          0         -1      )
                  (     0         -1          0      )
                  (    -1          0          0      )

 cart.    s(10) = (  0.0000000  0.0000000 -1.0000000 )
                  (  0.0000000 -1.0000000  0.0000000 )
                  ( -1.0000000  0.0000000  0.0000000 )


      isym = 11      90 deg rotation - cart. axis [0,1,0]        

 cryst.   s(11) = (     0          0         -1      )
                  (     0          1          0      )
                  (     1          0          0      )

 cart.    s(11) = (  0.0000000  0.0000000  1.0000000 )
                  (  0.0000000  1.0000000  0.0000000 )
                  ( -1.0000000  0.0000000  0.0000000 )


      isym = 12      90 deg rotation - cart. axis [0,-1,0]       

 cryst.   s(12) = (     0          0          1      )
                  (     0          1          0      )
                  (    -1          0          0      )

 cart.    s(12) = (  0.0000000  0.0000000 -1.0000000 )
                  (  0.0000000  1.0000000  0.0000000 )
                  (  1.0000000  0.0000000  0.0000000 )


      isym = 13     180 deg rotation - cart. axis [0,1,1]        

 cryst.   s(13) = (    -1          0          0      )
                  (     0          0          1      )
                  (     0          1          0      )

 cart.    s(13) = ( -1.0000000  0.0000000  0.0000000 )
                  (  0.0000000  0.0000000  1.0000000 )
                  (  0.0000000  1.0000000  0.0000000 )


      isym = 14     180 deg rotation - cart. axis [0,1,-1]       

 cryst.   s(14) = (    -1          0          0      )
                  (     0          0         -1      )
                  (     0         -1          0      )

 cart.    s(14) = ( -1.0000000  0.0000000  0.0000000 )
                  (  0.0000000  0.0000000 -1.0000000 )
                  (  0.0000000 -1.0000000  0.0000000 )


      isym = 15      90 deg rotation - cart. axis [-1,0,0]       

 cryst.   s(15) = (     1          0          0      )
                  (     0          0         -1      )
                  (     0          1          0      )

 cart.    s(15) = (  1.0000000  0.0000000  0.0000000 )
                  (  0.0000000  0.0000000  1.0000000 )
                  (  0.0000000 -1.0000000  0.0000000 )


      isym = 16      90 deg rotation - cart. axis [1,0,0]        

 cryst.   s(16) = (     1          0          0      )
                  (     0          0          1      )
                  (     0         -1          0      )

 cart.    s(16) = (  1.0000000  0.0000000  0.0000000 )
                  (  0.0000000  0.0000000 -1.0000000 )
                  (  0.0000000  1.0000000  0.0000000 )


      isym = 17     120 deg rotation - cart. axis [-1,-1,-1]     

 cryst.   s(17) = (     0          0          1      )
                  (     1          0          0      )
                  (     0          1          0      )

 cart.    s(17) = (  0.0000000  1.0000000  0.0000000 )
                  (  0.0000000  0.0000000  1.0000000 )
                  (  1.0000000  0.0000000  0.0000000 )


      isym = 18     120 deg rotation - cart. axis [-1,1,1]       

 cryst.   s(18) = (     0          0         -1      )
                  (    -1          0          0      )
                  (     0          1          0      )

 cart.    s(18) = (  0.0000000 -1.0000000  0.0000000 )
                  (  0.0000000  0.0000000  1.0000000 )
                  ( -1.0000000  0.0000000  0.0000000 )


      isym = 19     120 deg rotation - cart. axis [1,1,-1]       

 cryst.   s(19) = (     0          0         -1      )
                  (     1          0          0      )
                  (     0         -1          0      )

 cart.    s(19) = (  0.0000000  1.0000000  0.0000000 )
                  (  0.0000000  0.0000000 -1.0000000 )
                  ( -1.0000000  0.0000000  0.0000000 )


      isym = 20     120 deg rotation - cart. axis [1,-1,1]       

 cryst.   s(20) = (     0          0          1      )
                  (    -1          0          0      )
                  (     0         -1          0      )

 cart.    s(20) = (  0.0000000 -1.0000000  0.0000000 )
                  (  0.0000000  0.0000000 -1.0000000 )
                  (  1.0000000  0.0000000  0.0000000 )


      isym = 21     120 deg rotation - cart. axis [1,1,1]        

 cryst.   s(21) = (     0          1          0      )
                  (     0          0          1      )
                  (     1          0          0      )

 cart.    s(21) = (  0.0000000  0.0000000  1.0000000 )
                  (  1.0000000  0.0000000  0.0000000 )
                  (  0.0000000  1.0000000  0.0000000 )


      isym = 22     120 deg rotation - cart. axis [-1,1,-1]      

 cryst.   s(22) = (     0         -1          0      )
                  (     0          0         -1      )
                  (     1          0          0      )

 cart.    s(22) = (  0.0000000  0.0000000  1.0000000 )
                  ( -1.0000000  0.0000000  0.0000000 )
                  (  0.0000000 -1.0000000  0.0000000 )


      isym = 23     120 deg rotation - cart. axis [1,-1,-1]      

 cryst.   s(23) = (     0         -1          0      )
                  (     0          0          1      )
                  (    -1          0          0      )

 cart.    s(23) = (  0.0000000  0.0000000 -1.0000000 )
                  ( -1.0000000  0.0000000  0.0000000 )
                  (  0.0000000  1.0000000  0.0000000 )


      isym = 24     120 deg rotation - cart. axis [-1,-1,1]      

 cryst.   s(24) = (     0          1          0      )
                  (     0          0         -1      )
                  (    -1          0          0      )

 cart.    s(24) = (  0.0000000  0.0000000 -1.0000000 )
                  (  1.0000000  0.0000000  0.0000000 )
                  (  0.0000000 -1.0000000  0.0000000 )


      isym = 25     inversion                                    

 cryst.   s(25) = (    -1          0          0      )
                  (     0         -1          0      )
                  (     0          0         -1      )

 cart.    s(25) = ( -1.0000000  0.0000000  0.0000000 )
                  (  0.0000000 -1.0000000  0.0000000 )
                  (  0.0000000  0.0000000 -1.0000000 )


      isym = 26     inv. 180 deg rotation - cart. axis [0,0,1]   

 cryst.   s(26) = (     1          0          0      )
                  (     0          1          0      )
                  (     0          0         -1      )

 cart.    s(26) = (  1.0000000  0.0000000  0.0000000 )
                  (  0.0000000  1.0000000  0.0000000 )
                  (  0.0000000  0.0000000 -1.0000000 )


      isym = 27     inv. 180 deg rotation - cart. axis [0,1,0]   

 cryst.   s(27) = (     1          0          0      )
                  (     0         -1          0      )
                  (     0          0          1      )

 cart.    s(27) = (  1.0000000  0.0000000  0.0000000 )
                  (  0.0000000 -1.0000000  0.0000000 )
                  (  0.0000000  0.0000000  1.0000000 )


      isym = 28     inv. 180 deg rotation - cart. axis [1,0,0]   

 cryst.   s(28) = (    -1          0          0      )
                  (     0          1          0      )
                  (     0          0          1      )

 cart.    s(28) = ( -1.0000000  0.0000000  0.0000000 )
                  (  0.0000000  1.0000000  0.0000000 )
                  (  0.0000000  0.0000000  1.0000000 )


      isym = 29     inv. 180 deg rotation - cart. axis [1,1,0]   

 cryst.   s(29) = (     0         -1          0      )
                  (    -1          0          0      )
                  (     0          0          1      )

 cart.    s(29) = (  0.0000000 -1.0000000  0.0000000 )
                  ( -1.0000000  0.0000000  0.0000000 )
                  (  0.0000000  0.0000000  1.0000000 )


      isym = 30     inv. 180 deg rotation - cart. axis [1,-1,0]  

 cryst.   s(30) = (     0          1          0      )
                  (     1          0          0      )
                  (     0          0          1      )

 cart.    s(30) = (  0.0000000  1.0000000  0.0000000 )
                  (  1.0000000  0.0000000  0.0000000 )
                  (  0.0000000  0.0000000  1.0000000 )


      isym = 31     inv.  90 deg rotation - cart. axis [0,0,-1]  

 cryst.   s(31) = (     0          1          0      )
                  (    -1          0          0      )
                  (     0          0         -1      )

 cart.    s(31) = (  0.0000000 -1.0000000  0.0000000 )
                  (  1.0000000  0.0000000  0.0000000 )
                  (  0.0000000  0.0000000 -1.0000000 )


      isym = 32     inv.  90 deg rotation - cart. axis [0,0,1]   

 cryst.   s(32) = (     0         -1          0      )
                  (     1          0          0      )
                  (     0          0         -1      )

 cart.    s(32) = (  0.0000000  1.0000000  0.0000000 )
                  ( -1.0000000  0.0000000  0.0000000 )
                  (  0.0000000  0.0000000 -1.0000000 )


      isym = 33     inv. 180 deg rotation - cart. axis [1,0,1]   

 cryst.   s(33) = (     0          0         -1      )
                  (     0          1          0      )
                  (    -1          0          0      )

 cart.    s(33) = (  0.0000000  0.0000000 -1.0000000 )
                  (  0.0000000  1.0000000  0.0000000 )
                  ( -1.0000000  0.0000000  0.0000000 )


      isym = 34     inv. 180 deg rotation - cart. axis [-1,0,1]  

 cryst.   s(34) = (     0          0          1      )
                  (     0          1          0      )
                  (     1          0          0      )

 cart.    s(34) = (  0.0000000  0.0000000  1.0000000 )
                  (  0.0000000  1.0000000  0.0000000 )
                  (  1.0000000  0.0000000  0.0000000 )


      isym = 35     inv.  90 deg rotation - cart. axis [0,1,0]   

 cryst.   s(35) = (     0          0          1      )
                  (     0         -1          0      )
                  (    -1          0          0      )

 cart.    s(35) = (  0.0000000  0.0000000 -1.0000000 )
                  (  0.0000000 -1.0000000  0.0000000 )
                  (  1.0000000  0.0000000  0.0000000 )


      isym = 36     inv.  90 deg rotation - cart. axis [0,-1,0]  

 cryst.   s(36) = (     0          0         -1      )
                  (     0         -1          0      )
                  (     1          0          0      )

 cart.    s(36) = (  0.0000000  0.0000000  1.0000000 )
                  (  0.0000000 -1.0000000  0.0000000 )
                  ( -1.0000000  0.0000000  0.0000000 )


      isym = 37     inv. 180 deg rotation - cart. axis [0,1,1]   

 cryst.   s(37) = (     1          0          0      )
                  (     0          0         -1      )
                  (     0         -1          0      )

 cart.    s(37) = (  1.0000000  0.0000000  0.0000000 )
                  (  0.0000000  0.0000000 -1.0000000 )
                  (  0.0000000 -1.0000000  0.0000000 )


      isym = 38     inv. 180 deg rotation - cart. axis [0,1,-1]  

 cryst.   s(38) = (     1          0          0      )
                  (     0          0          1      )
                  (     0          1          0      )

 cart.    s(38) = (  1.0000000  0.0000000  0.0000000 )
                  (  0.0000000  0.0000000  1.0000000 )
                  (  0.0000000  1.0000000  0.0000000 )


      isym = 39     inv.  90 deg rotation - cart. axis [-1,0,0]  

 cryst.   s(39) = (    -1          0          0      )
                  (     0          0          1      )
                  (     0         -1          0      )

 cart.    s(39) = ( -1.0000000  0.0000000  0.0000000 )
                  (  0.0000000  0.0000000 -1.0000000 )
                  (  0.0000000  1.0000000  0.0000000 )


      isym = 40     inv.  90 deg rotation - cart. axis [1,0,0]   

 cryst.   s(40) = (    -1          0          0      )
                  (     0          0         -1      )
                  (     0          1          0      )

 cart.    s(40) = ( -1.0000000  0.0000000  0.0000000 )
                  (  0.0000000  0.0000000  1.0000000 )
                  (  0.0000000 -1.0000000  0.0000000 )


      isym = 41     inv. 120 deg rotation - cart. axis [-1,-1,-1]

 cryst.   s(41) = (     0          0         -1      )
                  (    -1          0          0      )
                  (     0         -1          0      )

 cart.    s(41) = (  0.0000000 -1.0000000  0.0000000 )
                  (  0.0000000  0.0000000 -1.0000000 )
                  ( -1.0000000  0.0000000  0.0000000 )


      isym = 42     inv. 120 deg rotation - cart. axis [-1,1,1]  

 cryst.   s(42) = (     0          0          1      )
                  (     1          0          0      )
                  (     0         -1          0      )

 cart.    s(42) = (  0.0000000  1.0000000  0.0000000 )
                  (  0.0000000  0.0000000 -1.0000000 )
                  (  1.0000000  0.0000000  0.0000000 )


      isym = 43     inv. 120 deg rotation - cart. axis [1,1,-1]  

 cryst.   s(43) = (     0          0          1      )
                  (    -1          0          0      )
                  (     0          1          0      )

 cart.    s(43) = (  0.0000000 -1.0000000  0.0000000 )
                  (  0.0000000  0.0000000  1.0000000 )
                  (  1.0000000  0.0000000  0.0000000 )


      isym = 44     inv. 120 deg rotation - cart. axis [1,-1,1]  

 cryst.   s(44) = (     0          0         -1      )
                  (     1          0          0      )
                  (     0          1          0      )

 cart.    s(44) = (  0.0000000  1.0000000  0.0000000 )
                  (  0.0000000  0.0000000  1.0000000 )
                  ( -1.0000000  0.0000000  0.0000000 )


      isym = 45     inv. 120 deg rotation - cart. axis [1,1,1]   

 cryst.   s(45) = (     0         -1          0      )
                  (     0          0         -1      )
                  (    -1          0          0      )

 cart.    s(45) = (  0.0000000  0.0000000 -1.0000000 )
                  ( -1.0000000  0.0000000  0.0000000 )
                  (  0.0000000 -1.0000000  0.0000000 )


      isym = 46     inv. 120 deg rotation - cart. axis [-1,1,-1] 

 cryst.   s(46) = (     0          1          0      )
                  (     0          0          1      )
                  (    -1          0          0      )

 cart.    s(46) = (  0.0000000  0.0000000 -1.0000000 )
                  (  1.0000000  0.0000000  0.0000000 )
                  (  0.0000000  1.0000000  0.0000000 )


      isym = 47     inv. 120 deg rotation - cart. axis [1,-1,-1] 

 cryst.   s(47) = (     0          1          0      )
                  (     0          0         -1      )
                  (     1          0          0      )

 cart.    s(47) = (  0.0000000  0.0000000  1.0000000 )
                  (  1.0000000  0.0000000  0.0000000 )
                  (  0.0000000 -1.0000000  0.0000000 )


      isym = 48     inv. 120 deg rotation - cart. axis [-1,-1,1] 

 cryst.   s(48) = (     0         -1          0      )
                  (     0          0          1      )
                  (     1          0          0      )

 cart.    s(48) = (  0.0000000  0.0000000  1.0000000 )
                  ( -1.0000000  0.0000000  0.0000000 )
                  (  0.0000000  1.0000000  0.0000000 )


     point group O_h (m-3m) 
     there are 10 classes
     the character table:

       E     8C3   3C2   6C4   6C2'  i     8S6   3s_h  6S4   6s_d 
A_1g   1.00  1.00  1.00  1.00  1.00  1.00  1.00  1.00  1.00  1.00
A_2g   1.00  1.00  1.00 -1.00 -1.00  1.00  1.00  1.00 -1.00 -1.00
E_g    2.00 -1.00  2.00  0.00  0.00  2.00 -1.00  2.00  0.00  0.00
T_1g   3.00  0.00 -1.00  1.00 -1.00  3.00  0.00 -1.00  1.00 -1.00
T_2g   3.00  0.00 -1.00 -1.00  1.00  3.00  0.00 -1.00 -1.00  1.00
A_1u   1.00  1.00  1.00  1.00  1.00 -1.00 -1.00 -1.00 -1.00 -1.00
A_2u   1.00  1.00  1.00 -1.00 -1.00 -1.00 -1.00 -1.00  1.00  1.00
E_u    2.00 -1.00  2.00  0.00  0.00 -2.00  1.00 -2.00  0.00  0.00
T_1u   3.00  0.00 -1.00  1.00 -1.00 -3.00  0.00  1.00 -1.00  1.00
T_2u   3.00  0.00 -1.00 -1.00  1.00 -3.00  0.00  1.00  1.00 -1.00

     the symmetry operations in each class and the name of the first element:

     E        1
          identity                                               
     8C3     17   19   20   18   24   21   22   23
          120 deg rotation - cart. axis [-1,-1,-1]               
     3C2      2    4    3
          180 deg rotation - cart. axis [0,0,1]                  
     6C4      7    8   15   16   12   11
           90 deg rotation - cart. axis [0,0,-1]                 
     6C2'     5    6   14   13   10    9
          180 deg rotation - cart. axis [1,1,0]                  
     i       25
          inversion                                              
     8S6     41   43   44   42   48   45   46   47
          inv. 120 deg rotation - cart. axis [-1,-1,-1]          
     3s_h    26   28   27
          inv. 180 deg rotation - cart. axis [0,0,1]             
     6S4     31   32   39   40   36   35
          inv.  90 deg rotation - cart. axis [0,0,-1]            
     6s_d    29   30   38   37   34   33
          inv. 180 deg rotation - cart. axis [1,1,0]             

   Cartesian axes

     site n.     atom                  positions (alat units)
         1           Fe  tau(   1) = (   0.0000000   0.0000000   0.0000000  )
         2           Ti  tau(   2) = (   0.5000000   0.5000000   0.5000000  )

   Crystallographic axes

     site n.     atom                  positions (cryst. coord.)
         1           Fe  tau(   1) = (  0.0000000  0.0000000  0.0000000  )
         2           Ti  tau(   2) = (  0.5000000  0.5000000  0.5000000  )

     number of k points=   120  Fermi-Dirac smearing, width (Ry)=  0.0100
                       cart. coord. in units 2pi/alat
        k(    1) = (   0.0312500   0.0312500   0.0312500), wk =   0.0039062
        k(    2) = (   0.0312500   0.0312500   0.0937500), wk =   0.0117188
        k(    3) = (   0.0312500   0.0312500   0.1562500), wk =   0.0117188
        k(    4) = (   0.0312500   0.0312500   0.2187500), wk =   0.0117188
        k(    5) = (   0.0312500   0.0312500   0.2812500), wk =   0.0117188
        k(    6) = (   0.0312500   0.0312500   0.3437500), wk =   0.0117188
        k(    7) = (   0.0312500   0.0312500   0.4062500), wk =   0.0117188
        k(    8) = (   0.0312500   0.0312500   0.4687500), wk =   0.0117188
        k(    9) = (   0.0312500   0.0937500   0.0937500), wk =   0.0117188
        k(   10) = (   0.0312500   0.0937500   0.1562500), wk =   0.0234375
        k(   11) = (   0.0312500   0.0937500   0.2187500), wk =   0.0234375
        k(   12) = (   0.0312500   0.0937500   0.2812500), wk =   0.0234375
        k(   13) = (   0.0312500   0.0937500   0.3437500), wk =   0.0234375
        k(   14) = (   0.0312500   0.0937500   0.4062500), wk =   0.0234375
        k(   15) = (   0.0312500   0.0937500   0.4687500), wk =   0.0234375
        k(   16) = (   0.0312500   0.1562500   0.1562500), wk =   0.0117188
        k(   17) = (   0.0312500   0.1562500   0.2187500), wk =   0.0234375
        k(   18) = (   0.0312500   0.1562500   0.2812500), wk =   0.0234375
        k(   19) = (   0.0312500   0.1562500   0.3437500), wk =   0.0234375
        k(   20) = (   0.0312500   0.1562500   0.4062500), wk =   0.0234375
        k(   21) = (   0.0312500   0.1562500   0.4687500), wk =   0.0234375
        k(   22) = (   0.0312500   0.2187500   0.2187500), wk =   0.0117188
        k(   23) = (   0.0312500   0.2187500   0.2812500), wk =   0.0234375
        k(   24) = (   0.0312500   0.2187500   0.3437500), wk =   0.0234375
        k(   25) = (   0.0312500   0.2187500   0.4062500), wk =   0.0234375
        k(   26) = (   0.0312500   0.2187500   0.4687500), wk =   0.0234375
        k(   27) = (   0.0312500   0.2812500   0.2812500), wk =   0.0117188
        k(   28) = (   0.0312500   0.2812500   0.3437500), wk =   0.0234375
        k(   29) = (   0.0312500   0.2812500   0.4062500), wk =   0.0234375
        k(   30) = (   0.0312500   0.2812500   0.4687500), wk =   0.0234375
        k(   31) = (   0.0312500   0.3437500   0.3437500), wk =   0.0117188
        k(   32) = (   0.0312500   0.3437500   0.4062500), wk =   0.0234375
        k(   33) = (   0.0312500   0.3437500   0.4687500), wk =   0.0234375
        k(   34) = (   0.0312500   0.4062500   0.4062500), wk =   0.0117188
        k(   35) = (   0.0312500   0.4062500   0.4687500), wk =   0.0234375
        k(   36) = (   0.0312500   0.4687500   0.4687500), wk =   0.0117188
        k(   37) = (   0.0937500   0.0937500   0.0937500), wk =   0.0039062
        k(   38) = (   0.0937500   0.0937500   0.1562500), wk =   0.0117188
        k(   39) = (   0.0937500   0.0937500   0.2187500), wk =   0.0117188
        k(   40) = (   0.0937500   0.0937500   0.2812500), wk =   0.0117188
        k(   41) = (   0.0937500   0.0937500   0.3437500), wk =   0.0117188
        k(   42) = (   0.0937500   0.0937500   0.4062500), wk =   0.0117188
        k(   43) = (   0.0937500   0.0937500   0.4687500), wk =   0.0117188
        k(   44) = (   0.0937500   0.1562500   0.1562500), wk =   0.0117188
        k(   45) = (   0.0937500   0.1562500   0.2187500), wk =   0.0234375
        k(   46) = (   0.0937500   0.1562500   0.2812500), wk =   0.0234375
        k(   47) = (   0.0937500   0.1562500   0.3437500), wk =   0.0234375
        k(   48) = (   0.0937500   0.1562500   0.4062500), wk =   0.0234375
        k(   49) = (   0.0937500   0.1562500   0.4687500), wk =   0.0234375
        k(   50) = (   0.0937500   0.2187500   0.2187500), wk =   0.0117188
        k(   51) = (   0.0937500   0.2187500   0.2812500), wk =   0.0234375
        k(   52) = (   0.0937500   0.2187500   0.3437500), wk =   0.0234375
        k(   53) = (   0.0937500   0.2187500   0.4062500), wk =   0.0234375
        k(   54) = (   0.0937500   0.2187500   0.4687500), wk =   0.0234375
        k(   55) = (   0.0937500   0.2812500   0.2812500), wk =   0.0117188
        k(   56) = (   0.0937500   0.2812500   0.3437500), wk =   0.0234375
        k(   57) = (   0.0937500   0.2812500   0.4062500), wk =   0.0234375
        k(   58) = (   0.0937500   0.2812500   0.4687500), wk =   0.0234375
        k(   59) = (   0.0937500   0.3437500   0.3437500), wk =   0.0117188
        k(   60) = (   0.0937500   0.3437500   0.4062500), wk =   0.0234375
        k(   61) = (   0.0937500   0.3437500   0.4687500), wk =   0.0234375
        k(   62) = (   0.0937500   0.4062500   0.4062500), wk =   0.0117188
        k(   63) = (   0.0937500   0.4062500   0.4687500), wk =   0.0234375
        k(   64) = (   0.0937500   0.4687500   0.4687500), wk =   0.0117188
        k(   65) = (   0.1562500   0.1562500   0.1562500), wk =   0.0039062
        k(   66) = (   0.1562500   0.1562500   0.2187500), wk =   0.0117188
        k(   67) = (   0.1562500   0.1562500   0.2812500), wk =   0.0117188
        k(   68) = (   0.1562500   0.1562500   0.3437500), wk =   0.0117188
        k(   69) = (   0.1562500   0.1562500   0.4062500), wk =   0.0117188
        k(   70) = (   0.1562500   0.1562500   0.4687500), wk =   0.0117188
        k(   71) = (   0.1562500   0.2187500   0.2187500), wk =   0.0117188
        k(   72) = (   0.1562500   0.2187500   0.2812500), wk =   0.0234375
        k(   73) = (   0.1562500   0.2187500   0.3437500), wk =   0.0234375
        k(   74) = (   0.1562500   0.2187500   0.4062500), wk =   0.0234375
        k(   75) = (   0.1562500   0.2187500   0.4687500), wk =   0.0234375
        k(   76) = (   0.1562500   0.2812500   0.2812500), wk =   0.0117188
        k(   77) = (   0.1562500   0.2812500   0.3437500), wk =   0.0234375
        k(   78) = (   0.1562500   0.2812500   0.4062500), wk =   0.0234375
        k(   79) = (   0.1562500   0.2812500   0.4687500), wk =   0.0234375
        k(   80) = (   0.1562500   0.3437500   0.3437500), wk =   0.0117188
        k(   81) = (   0.1562500   0.3437500   0.4062500), wk =   0.0234375
        k(   82) = (   0.1562500   0.3437500   0.4687500), wk =   0.0234375
        k(   83) = (   0.1562500   0.4062500   0.4062500), wk =   0.0117188
        k(   84) = (   0.1562500   0.4062500   0.4687500), wk =   0.0234375
        k(   85) = (   0.1562500   0.4687500   0.4687500), wk =   0.0117188
        k(   86) = (   0.2187500   0.2187500   0.2187500), wk =   0.0039062
        k(   87) = (   0.2187500   0.2187500   0.2812500), wk =   0.0117188
        k(   88) = (   0.2187500   0.2187500   0.3437500), wk =   0.0117188
        k(   89) = (   0.2187500   0.2187500   0.4062500), wk =   0.0117188
        k(   90) = (   0.2187500   0.2187500   0.4687500), wk =   0.0117188
        k(   91) = (   0.2187500   0.2812500   0.2812500), wk =   0.0117188
        k(   92) = (   0.2187500   0.2812500   0.3437500), wk =   0.0234375
        k(   93) = (   0.2187500   0.2812500   0.4062500), wk =   0.0234375
        k(   94) = (   0.2187500   0.2812500   0.4687500), wk =   0.0234375
        k(   95) = (   0.2187500   0.3437500   0.3437500), wk =   0.0117188
        k(   96) = (   0.2187500   0.3437500   0.4062500), wk =   0.0234375
        k(   97) = (   0.2187500   0.3437500   0.4687500), wk =   0.0234375
        k(   98) = (   0.2187500   0.4062500   0.4062500), wk =   0.0117188
        k(   99) = (   0.2187500   0.4062500   0.4687500), wk =   0.0234375
        k(  100) = (   0.2187500   0.4687500   0.4687500), wk =   0.0117188
        k(  101) = (   0.2812500   0.2812500   0.2812500), wk =   0.0039062
        k(  102) = (   0.2812500   0.2812500   0.3437500), wk =   0.0117188
        k(  103) = (   0.2812500   0.2812500   0.4062500), wk =   0.0117188
        k(  104) = (   0.2812500   0.2812500   0.4687500), wk =   0.0117188
        k(  105) = (   0.2812500   0.3437500   0.3437500), wk =   0.0117188
        k(  106) = (   0.2812500   0.3437500   0.4062500), wk =   0.0234375
        k(  107) = (   0.2812500   0.3437500   0.4687500), wk =   0.0234375
        k(  108) = (   0.2812500   0.4062500   0.4062500), wk =   0.0117188
        k(  109) = (   0.2812500   0.4062500   0.4687500), wk =   0.0234375
        k(  110) = (   0.2812500   0.4687500   0.4687500), wk =   0.0117188
        k(  111) = (   0.3437500   0.3437500   0.3437500), wk =   0.0039062
        k(  112) = (   0.3437500   0.3437500   0.4062500), wk =   0.0117188
        k(  113) = (   0.3437500   0.3437500   0.4687500), wk =   0.0117188
        k(  114) = (   0.3437500   0.4062500   0.4062500), wk =   0.0117188
        k(  115) = (   0.3437500   0.4062500   0.4687500), wk =   0.0234375
        k(  116) = (   0.3437500   0.4687500   0.4687500), wk =   0.0117188
        k(  117) = (   0.4062500   0.4062500   0.4062500), wk =   0.0039062
        k(  118) = (   0.4062500   0.4062500   0.4687500), wk =   0.0117188
        k(  119) = (   0.4062500   0.4687500   0.4687500), wk =   0.0117188
        k(  120) = (   0.4687500   0.4687500   0.4687500), wk =   0.0039062

                       cryst. coord.
        k(    1) = (   0.0312500   0.0312500   0.0312500), wk =   0.0039062
        k(    2) = (   0.0312500   0.0312500   0.0937500), wk =   0.0117188
        k(    3) = (   0.0312500   0.0312500   0.1562500), wk =   0.0117188
        k(    4) = (   0.0312500   0.0312500   0.2187500), wk =   0.0117188
        k(    5) = (   0.0312500   0.0312500   0.2812500), wk =   0.0117188
        k(    6) = (   0.0312500   0.0312500   0.3437500), wk =   0.0117188
        k(    7) = (   0.0312500   0.0312500   0.4062500), wk =   0.0117188
        k(    8) = (   0.0312500   0.0312500   0.4687500), wk =   0.0117188
        k(    9) = (   0.0312500   0.0937500   0.0937500), wk =   0.0117188
        k(   10) = (   0.0312500   0.0937500   0.1562500), wk =   0.0234375
        k(   11) = (   0.0312500   0.0937500   0.2187500), wk =   0.0234375
        k(   12) = (   0.0312500   0.0937500   0.2812500), wk =   0.0234375
        k(   13) = (   0.0312500   0.0937500   0.3437500), wk =   0.0234375
        k(   14) = (   0.0312500   0.0937500   0.4062500), wk =   0.0234375
        k(   15) = (   0.0312500   0.0937500   0.4687500), wk =   0.0234375
        k(   16) = (   0.0312500   0.1562500   0.1562500), wk =   0.0117188
        k(   17) = (   0.0312500   0.1562500   0.2187500), wk =   0.0234375
        k(   18) = (   0.0312500   0.1562500   0.2812500), wk =   0.0234375
        k(   19) = (   0.0312500   0.1562500   0.3437500), wk =   0.0234375
        k(   20) = (   0.0312500   0.1562500   0.4062500), wk =   0.0234375
        k(   21) = (   0.0312500   0.1562500   0.4687500), wk =   0.0234375
        k(   22) = (   0.0312500   0.2187500   0.2187500), wk =   0.0117188
        k(   23) = (   0.0312500   0.2187500   0.2812500), wk =   0.0234375
        k(   24) = (   0.0312500   0.2187500   0.3437500), wk =   0.0234375
        k(   25) = (   0.0312500   0.2187500   0.4062500), wk =   0.0234375
        k(   26) = (   0.0312500   0.2187500   0.4687500), wk =   0.0234375
        k(   27) = (   0.0312500   0.2812500   0.2812500), wk =   0.0117188
        k(   28) = (   0.0312500   0.2812500   0.3437500), wk =   0.0234375
        k(   29) = (   0.0312500   0.2812500   0.4062500), wk =   0.0234375
        k(   30) = (   0.0312500   0.2812500   0.4687500), wk =   0.0234375
        k(   31) = (   0.0312500   0.3437500   0.3437500), wk =   0.0117188
        k(   32) = (   0.0312500   0.3437500   0.4062500), wk =   0.0234375
        k(   33) = (   0.0312500   0.3437500   0.4687500), wk =   0.0234375
        k(   34) = (   0.0312500   0.4062500   0.4062500), wk =   0.0117188
        k(   35) = (   0.0312500   0.4062500   0.4687500), wk =   0.0234375
        k(   36) = (   0.0312500   0.4687500   0.4687500), wk =   0.0117188
        k(   37) = (   0.0937500   0.0937500   0.0937500), wk =   0.0039062
        k(   38) = (   0.0937500   0.0937500   0.1562500), wk =   0.0117188
        k(   39) = (   0.0937500   0.0937500   0.2187500), wk =   0.0117188
        k(   40) = (   0.0937500   0.0937500   0.2812500), wk =   0.0117188
        k(   41) = (   0.0937500   0.0937500   0.3437500), wk =   0.0117188
        k(   42) = (   0.0937500   0.0937500   0.4062500), wk =   0.0117188
        k(   43) = (   0.0937500   0.0937500   0.4687500), wk =   0.0117188
        k(   44) = (   0.0937500   0.1562500   0.1562500), wk =   0.0117188
        k(   45) = (   0.0937500   0.1562500   0.2187500), wk =   0.0234375
        k(   46) = (   0.0937500   0.1562500   0.2812500), wk =   0.0234375
        k(   47) = (   0.0937500   0.1562500   0.3437500), wk =   0.0234375
        k(   48) = (   0.0937500   0.1562500   0.4062500), wk =   0.0234375
        k(   49) = (   0.0937500   0.1562500   0.4687500), wk =   0.0234375
        k(   50) = (   0.0937500   0.2187500   0.2187500), wk =   0.0117188
        k(   51) = (   0.0937500   0.2187500   0.2812500), wk =   0.0234375
        k(   52) = (   0.0937500   0.2187500   0.3437500), wk =   0.0234375
        k(   53) = (   0.0937500   0.2187500   0.4062500), wk =   0.0234375
        k(   54) = (   0.0937500   0.2187500   0.4687500), wk =   0.0234375
        k(   55) = (   0.0937500   0.2812500   0.2812500), wk =   0.0117188
        k(   56) = (   0.0937500   0.2812500   0.3437500), wk =   0.0234375
        k(   57) = (   0.0937500   0.2812500   0.4062500), wk =   0.0234375
        k(   58) = (   0.0937500   0.2812500   0.4687500), wk =   0.0234375
        k(   59) = (   0.0937500   0.3437500   0.3437500), wk =   0.0117188
        k(   60) = (   0.0937500   0.3437500   0.4062500), wk =   0.0234375
        k(   61) = (   0.0937500   0.3437500   0.4687500), wk =   0.0234375
        k(   62) = (   0.0937500   0.4062500   0.4062500), wk =   0.0117188
        k(   63) = (   0.0937500   0.4062500   0.4687500), wk =   0.0234375
        k(   64) = (   0.0937500   0.4687500   0.4687500), wk =   0.0117188
        k(   65) = (   0.1562500   0.1562500   0.1562500), wk =   0.0039062
        k(   66) = (   0.1562500   0.1562500   0.2187500), wk =   0.0117188
        k(   67) = (   0.1562500   0.1562500   0.2812500), wk =   0.0117188
        k(   68) = (   0.1562500   0.1562500   0.3437500), wk =   0.0117188
        k(   69) = (   0.1562500   0.1562500   0.4062500), wk =   0.0117188
        k(   70) = (   0.1562500   0.1562500   0.4687500), wk =   0.0117188
        k(   71) = (   0.1562500   0.2187500   0.2187500), wk =   0.0117188
        k(   72) = (   0.1562500   0.2187500   0.2812500), wk =   0.0234375
        k(   73) = (   0.1562500   0.2187500   0.3437500), wk =   0.0234375
        k(   74) = (   0.1562500   0.2187500   0.4062500), wk =   0.0234375
        k(   75) = (   0.1562500   0.2187500   0.4687500), wk =   0.0234375
        k(   76) = (   0.1562500   0.2812500   0.2812500), wk =   0.0117188
        k(   77) = (   0.1562500   0.2812500   0.3437500), wk =   0.0234375
        k(   78) = (   0.1562500   0.2812500   0.4062500), wk =   0.0234375
        k(   79) = (   0.1562500   0.2812500   0.4687500), wk =   0.0234375
        k(   80) = (   0.1562500   0.3437500   0.3437500), wk =   0.0117188
        k(   81) = (   0.1562500   0.3437500   0.4062500), wk =   0.0234375
        k(   82) = (   0.1562500   0.3437500   0.4687500), wk =   0.0234375
        k(   83) = (   0.1562500   0.4062500   0.4062500), wk =   0.0117188
        k(   84) = (   0.1562500   0.4062500   0.4687500), wk =   0.0234375
        k(   85) = (   0.1562500   0.4687500   0.4687500), wk =   0.0117188
        k(   86) = (   0.2187500   0.2187500   0.2187500), wk =   0.0039062
        k(   87) = (   0.2187500   0.2187500   0.2812500), wk =   0.0117188
        k(   88) = (   0.2187500   0.2187500   0.3437500), wk =   0.0117188
        k(   89) = (   0.2187500   0.2187500   0.4062500), wk =   0.0117188
        k(   90) = (   0.2187500   0.2187500   0.4687500), wk =   0.0117188
        k(   91) = (   0.2187500   0.2812500   0.2812500), wk =   0.0117188
        k(   92) = (   0.2187500   0.2812500   0.3437500), wk =   0.0234375
        k(   93) = (   0.2187500   0.2812500   0.4062500), wk =   0.0234375
        k(   94) = (   0.2187500   0.2812500   0.4687500), wk =   0.0234375
        k(   95) = (   0.2187500   0.3437500   0.3437500), wk =   0.0117188
        k(   96) = (   0.2187500   0.3437500   0.4062500), wk =   0.0234375
        k(   97) = (   0.2187500   0.3437500   0.4687500), wk =   0.0234375
        k(   98) = (   0.2187500   0.4062500   0.4062500), wk =   0.0117188
        k(   99) = (   0.2187500   0.4062500   0.4687500), wk =   0.0234375
        k(  100) = (   0.2187500   0.4687500   0.4687500), wk =   0.0117188
        k(  101) = (   0.2812500   0.2812500   0.2812500), wk =   0.0039062
        k(  102) = (   0.2812500   0.2812500   0.3437500), wk =   0.0117188
        k(  103) = (   0.2812500   0.2812500   0.4062500), wk =   0.0117188
        k(  104) = (   0.2812500   0.2812500   0.4687500), wk =   0.0117188
        k(  105) = (   0.2812500   0.3437500   0.3437500), wk =   0.0117188
        k(  106) = (   0.2812500   0.3437500   0.4062500), wk =   0.0234375
        k(  107) = (   0.2812500   0.3437500   0.4687500), wk =   0.0234375
        k(  108) = (   0.2812500   0.4062500   0.4062500), wk =   0.0117188
        k(  109) = (   0.2812500   0.4062500   0.4687500), wk =   0.0234375
        k(  110) = (   0.2812500   0.4687500   0.4687500), wk =   0.0117188
        k(  111) = (   0.3437500   0.3437500   0.3437500), wk =   0.0039062
        k(  112) = (   0.3437500   0.3437500   0.4062500), wk =   0.0117188
        k(  113) = (   0.3437500   0.3437500   0.4687500), wk =   0.0117188
        k(  114) = (   0.3437500   0.4062500   0.4062500), wk =   0.0117188
        k(  115) = (   0.3437500   0.4062500   0.4687500), wk =   0.0234375
        k(  116) = (   0.3437500   0.4687500   0.4687500), wk =   0.0117188
        k(  117) = (   0.4062500   0.4062500   0.4062500), wk =   0.0039062
        k(  118) = (   0.4062500   0.4062500   0.4687500), wk =   0.0117188
        k(  119) = (   0.4062500   0.4687500   0.4687500), wk =   0.0117188
        k(  120) = (   0.4687500   0.4687500   0.4687500), wk =   0.0039062

     Dense  grid:    23703 G-vectors     FFT dimensions: (  36,  36,  36)

     Smooth grid:     8385 G-vectors     FFT dimensions: (  25,  25,  25)

     Dynamical RAM for                 wfc:       0.22 MB

     Dynamical RAM for     wfc (w. buffer):      27.09 MB

     Dynamical RAM for           str. fact:       0.72 MB

     Dynamical RAM for           local pot:       0.00 MB

     Dynamical RAM for          nlocal pot:       0.58 MB

     Dynamical RAM for                qrad:       2.86 MB

     Dynamical RAM for          rho,v,vnew:       2.15 MB

     Dynamical RAM for               rhoin:       0.72 MB

     Dynamical RAM for            rho*nmix:       5.79 MB

     Dynamical RAM for           G-vectors:       1.42 MB

     Dynamical RAM for          h,s,v(r/c):       0.01 MB

     Dynamical RAM for          <psi|beta>:       0.01 MB

     Dynamical RAM for      wfcinit/wfcrot:       0.52 MB

     Dynamical RAM for           addusdens:      67.63 MB

     Dynamical RAM for          addusforce:      68.91 MB

     Estimated static dynamical RAM per process >      44.19 MB

     Estimated max dynamical RAM per process >     113.10 MB

     Check: negative/imaginary core charge=   -0.000012    0.000000

     Initial potential from superposition of free atoms

     starting charge   18.99949, renormalised to   19.50000
     Starting wfcs are   16 randomized atomic wfcs

     total cpu time spent up to now is        3.0 secs

     Self-consistent Calculation

     iteration #  1     ecut=    50.00 Ry     beta= 0.70
     CG style diagonalization
     ethr =  1.00E-02,  avg # of iterations =  2.8

     total cpu time spent up to now is        8.4 secs

     total energy              =    -160.20874937 Ry
     Harris-Foulkes estimate   =    -173.75899553 Ry
     estimated scf accuracy    <      15.85018306 Ry

     iteration #  2     ecut=    50.00 Ry     beta= 0.70
     CG style diagonalization
     c_bands:  1 eigenvalues not converged
     c_bands:  1 eigenvalues not converged
     c_bands:  1 eigenvalues not converged
     c_bands:  1 eigenvalues not converged
     c_bands:  1 eigenvalues not converged
     c_bands:  1 eigenvalues not converged
     c_bands:  1 eigenvalues not converged
     c_bands:  1 eigenvalues not converged
     c_bands:  1 eigenvalues not converged
     c_bands:  1 eigenvalues not converged
     c_bands:  1 eigenvalues not converged
     c_bands:  1 eigenvalues not converged
     c_bands:  1 eigenvalues not converged
     ethr =  1.00E-02,  avg # of iterations =  8.2

     total cpu time spent up to now is       21.8 secs

     total energy              =    -172.50984392 Ry
     Harris-Foulkes estimate   =    -194.66358253 Ry
     estimated scf accuracy    <      54.62593778 Ry

     iteration #  3     ecut=    50.00 Ry     beta= 0.70
     CG style diagonalization
     ethr =  1.00E-02,  avg # of iterations =  4.4

     total cpu time spent up to now is       29.3 secs

     total energy              =    -173.34907464 Ry
     Harris-Foulkes estimate   =    -176.08449442 Ry
     estimated scf accuracy    <      13.24990366 Ry

     iteration #  4     ecut=    50.00 Ry     beta= 0.70
     CG style diagonalization
     ethr =  1.00E-02,  avg # of iterations =  3.3

     total cpu time spent up to now is       35.1 secs

     total energy              =    -173.27936807 Ry
     Harris-Foulkes estimate   =    -173.66310801 Ry
     estimated scf accuracy    <       6.58486280 Ry

     iteration #  5     ecut=    50.00 Ry     beta= 0.70
     CG style diagonalization
     ethr =  1.00E-02,  avg # of iterations =  3.0

     total cpu time spent up to now is       40.5 secs

     total energy              =    -173.23626250 Ry
     Harris-Foulkes estimate   =    -173.34071516 Ry
     estimated scf accuracy    <       5.02584678 Ry

     iteration #  6     ecut=    50.00 Ry     beta= 0.70
     CG style diagonalization
     ethr =  1.00E-02,  avg # of iterations =  3.0

     total cpu time spent up to now is       45.8 secs

     total energy              =    -172.28346055 Ry
     Harris-Foulkes estimate   =    -173.25917317 Ry
     estimated scf accuracy    <       4.54217209 Ry

     iteration #  7     ecut=    50.00 Ry     beta= 0.70
     CG style diagonalization
     ethr =  1.00E-02,  avg # of iterations =  3.3

     total cpu time spent up to now is       51.6 secs

     total energy              =    -172.68857259 Ry
     Harris-Foulkes estimate   =    -172.67314127 Ry
     estimated scf accuracy    <       0.02586307 Ry

     iteration #  8     ecut=    50.00 Ry     beta= 0.70
     CG style diagonalization
     c_bands:  1 eigenvalues not converged
     ethr =  1.33E-04,  avg # of iterations =  6.9

     total cpu time spent up to now is       63.0 secs

     total energy              =    -172.81669466 Ry
     Harris-Foulkes estimate   =    -172.82423500 Ry
     estimated scf accuracy    <       0.57975796 Ry

     iteration #  9     ecut=    50.00 Ry     beta= 0.70
     CG style diagonalization
     ethr =  1.33E-04,  avg # of iterations =  3.3

     total cpu time spent up to now is       68.9 secs

     total energy              =    -172.75085013 Ry
     Harris-Foulkes estimate   =    -172.82087603 Ry
     estimated scf accuracy    <       0.43295003 Ry

     iteration # 10     ecut=    50.00 Ry     beta= 0.70
     CG style diagonalization
     ethr =  1.33E-04,  avg # of iterations =  4.9

     total cpu time spent up to now is       77.2 secs

     total energy              =    -172.88130164 Ry
     Harris-Foulkes estimate   =    -172.81300915 Ry
     estimated scf accuracy    <       0.18397554 Ry

     iteration # 11     ecut=    50.00 Ry     beta= 0.70
     CG style diagonalization
     c_bands:  1 eigenvalues not converged
     ethr =  1.33E-04,  avg # of iterations =  4.7

     total cpu time spent up to now is       85.2 secs

     total energy              =    -173.45048734 Ry
     Harris-Foulkes estimate   =    -173.03271798 Ry
     estimated scf accuracy    <       5.45027643 Ry

     iteration # 12     ecut=    50.00 Ry     beta= 0.70
     CG style diagonalization
     ethr =  1.33E-04,  avg # of iterations =  5.3

     total cpu time spent up to now is       94.1 secs

     total energy              =    -173.33532628 Ry
     Harris-Foulkes estimate   =    -173.63314767 Ry
     estimated scf accuracy    <      17.90590440 Ry

     iteration # 13     ecut=    50.00 Ry     beta= 0.70
     CG style diagonalization
     ethr =  1.33E-04,  avg # of iterations =  3.5

     total cpu time spent up to now is      100.3 secs

     total energy              =    -171.83710555 Ry
     Harris-Foulkes estimate   =    -173.35361784 Ry
     estimated scf accuracy    <      13.46532020 Ry

     iteration # 14     ecut=    50.00 Ry     beta= 0.70
     CG style diagonalization
     c_bands:  1 eigenvalues not converged
     c_bands:  1 eigenvalues not converged
     c_bands:  1 eigenvalues not converged
     c_bands:  2 eigenvalues not converged
     c_bands:  1 eigenvalues not converged
     ethr =  1.33E-04,  avg # of iterations =  7.1

     total cpu time spent up to now is      112.0 secs

     total energy              =    -172.85548503 Ry
     Harris-Foulkes estimate   =    -172.85165207 Ry
     estimated scf accuracy    <       0.23524738 Ry

     iteration # 15     ecut=    50.00 Ry     beta= 0.70
     CG style diagonalization
     ethr =  1.33E-04,  avg # of iterations =  3.8

     total cpu time spent up to now is      118.6 secs

     total energy              =    -172.84155764 Ry
     Harris-Foulkes estimate   =    -172.87679323 Ry
     estimated scf accuracy    <       0.67721642 Ry

     iteration # 16     ecut=    50.00 Ry     beta= 0.70
     CG style diagonalization
     ethr =  1.33E-04,  avg # of iterations =  4.8

     total cpu time spent up to now is      126.8 secs

     total energy              =    -172.78638003 Ry
     Harris-Foulkes estimate   =    -172.87350748 Ry
     estimated scf accuracy    <       1.25965161 Ry

     iteration # 17     ecut=    50.00 Ry     beta= 0.70
     CG style diagonalization
     ethr =  1.33E-04,  avg # of iterations =  3.7

     total cpu time spent up to now is      133.2 secs

     total energy              =    -172.77058500 Ry
     Harris-Foulkes estimate   =    -172.81493159 Ry
     estimated scf accuracy    <       0.21737603 Ry

     iteration # 18     ecut=    50.00 Ry     beta= 0.70
     CG style diagonalization
     ethr =  1.33E-04,  avg # of iterations =  4.1

     total cpu time spent up to now is      140.3 secs

     total energy              =    -172.77726616 Ry
     Harris-Foulkes estimate   =    -172.80154169 Ry
     estimated scf accuracy    <       0.04814206 Ry

     iteration # 19     ecut=    50.00 Ry     beta= 0.70
     CG style diagonalization
     ethr =  1.33E-04,  avg # of iterations =  3.7

     total cpu time spent up to now is      146.7 secs

     total energy              =    -172.78087842 Ry
     Harris-Foulkes estimate   =    -172.82035479 Ry
     estimated scf accuracy    <       0.40672476 Ry

     iteration # 20     ecut=    50.00 Ry     beta= 0.70
     CG style diagonalization
     ethr =  1.33E-04,  avg # of iterations =  3.4

     total cpu time spent up to now is      152.7 secs

     total energy              =    -172.80550150 Ry
     Harris-Foulkes estimate   =    -172.79957397 Ry
     estimated scf accuracy    <       0.02492806 Ry

     iteration # 21     ecut=    50.00 Ry     beta= 0.70
     CG style diagonalization
     ethr =  1.28E-04,  avg # of iterations =  3.1

     total cpu time spent up to now is      158.1 secs

     total energy              =    -172.80446691 Ry
     Harris-Foulkes estimate   =    -172.80733831 Ry
     estimated scf accuracy    <       0.04989853 Ry

     iteration # 22     ecut=    50.00 Ry     beta= 0.70
     CG style diagonalization
     ethr =  1.28E-04,  avg # of iterations =  3.0

     total cpu time spent up to now is      163.4 secs

     total energy              =    -172.79285847 Ry
     Harris-Foulkes estimate   =    -172.80508009 Ry
     estimated scf accuracy    <       0.05459212 Ry

     iteration # 23     ecut=    50.00 Ry     beta= 0.70
     CG style diagonalization
     ethr =  1.28E-04,  avg # of iterations =  3.1

     total cpu time spent up to now is      168.9 secs

     total energy              =    -172.79451149 Ry
     Harris-Foulkes estimate   =    -172.79596581 Ry
     estimated scf accuracy    <       0.00641271 Ry

     iteration # 24     ecut=    50.00 Ry     beta= 0.70
     CG style diagonalization
     ethr =  3.29E-05,  avg # of iterations =  3.6

     total cpu time spent up to now is      175.1 secs

     total energy              =    -172.79699983 Ry
     Harris-Foulkes estimate   =    -172.79675394 Ry
     estimated scf accuracy    <       0.00738947 Ry

     iteration # 25     ecut=    50.00 Ry     beta= 0.70
     CG style diagonalization
     ethr =  3.29E-05,  avg # of iterations =  3.3

     total cpu time spent up to now is      180.9 secs

     total energy              =    -172.79685085 Ry
     Harris-Foulkes estimate   =    -172.79785269 Ry
     estimated scf accuracy    <       0.01855184 Ry

     iteration # 26     ecut=    50.00 Ry     beta= 0.70
     CG style diagonalization
     ethr =  3.29E-05,  avg # of iterations =  3.2

     total cpu time spent up to now is      186.5 secs

     total energy              =    -172.79641952 Ry
     Harris-Foulkes estimate   =    -172.79793927 Ry
     estimated scf accuracy    <       0.00530107 Ry

     iteration # 27     ecut=    50.00 Ry     beta= 0.70
     CG style diagonalization
     ethr =  2.72E-05,  avg # of iterations =  3.2

     total cpu time spent up to now is      192.2 secs

     total energy              =    -172.79115200 Ry
     Harris-Foulkes estimate   =    -172.79807386 Ry
     estimated scf accuracy    <       0.02152012 Ry

     iteration # 28     ecut=    50.00 Ry     beta= 0.70
     CG style diagonalization
     ethr =  2.72E-05,  avg # of iterations =  3.8

     total cpu time spent up to now is      198.8 secs

     total energy              =    -172.78340834 Ry
     Harris-Foulkes estimate   =    -172.80345947 Ry
     estimated scf accuracy    <       0.13038822 Ry

     iteration # 29     ecut=    50.00 Ry     beta= 0.70
     CG style diagonalization
     ethr =  2.72E-05,  avg # of iterations =  4.0

     total cpu time spent up to now is      205.6 secs

     total energy              =    -172.78921798 Ry
     Harris-Foulkes estimate   =    -172.79771156 Ry
     estimated scf accuracy    <       0.02659382 Ry

     iteration # 30     ecut=    50.00 Ry     beta= 0.70
     CG style diagonalization
     ethr =  2.72E-05,  avg # of iterations =  4.9

     total cpu time spent up to now is      213.9 secs

     total energy              =    -172.78996911 Ry
     Harris-Foulkes estimate   =    -172.81329047 Ry
     estimated scf accuracy    <       0.28515813 Ry

     iteration # 31     ecut=    50.00 Ry     beta= 0.70
     CG style diagonalization
     ethr =  2.72E-05,  avg # of iterations =  4.1

     total cpu time spent up to now is      220.9 secs

     total energy              =    -172.79753404 Ry
     Harris-Foulkes estimate   =    -172.79762522 Ry
     estimated scf accuracy    <       0.02732301 Ry

     iteration # 32     ecut=    50.00 Ry     beta= 0.70
     CG style diagonalization
     ethr =  2.72E-05,  avg # of iterations =  3.1

     total cpu time spent up to now is      226.3 secs

     total energy              =    -172.79494983 Ry
     Harris-Foulkes estimate   =    -172.79775797 Ry
     estimated scf accuracy    <       0.02529433 Ry

     iteration # 33     ecut=    50.00 Ry     beta= 0.70
     CG style diagonalization
     ethr =  2.72E-05,  avg # of iterations =  3.1

     total cpu time spent up to now is      231.8 secs

     total energy              =    -172.79594346 Ry
     Harris-Foulkes estimate   =    -172.79605159 Ry
     estimated scf accuracy    <       0.00079501 Ry

     iteration # 34     ecut=    50.00 Ry     beta= 0.70
     CG style diagonalization
     c_bands:  1 eigenvalues not converged
     ethr =  4.08E-06,  avg # of iterations =  3.6

     total cpu time spent up to now is      238.2 secs

     total energy              =    -172.79611315 Ry
     Harris-Foulkes estimate   =    -172.79612785 Ry
     estimated scf accuracy    <       0.00005923 Ry

     iteration # 35     ecut=    50.00 Ry     beta= 0.70
     CG style diagonalization
     c_bands:  1 eigenvalues not converged
     c_bands:  1 eigenvalues not converged
     c_bands:  1 eigenvalues not converged
     ethr =  3.04E-07,  avg # of iterations =  4.9

     total cpu time spent up to now is      246.5 secs

     total energy              =    -172.79626522 Ry
     Harris-Foulkes estimate   =    -172.79628964 Ry
     estimated scf accuracy    <       0.00026064 Ry

     iteration # 36     ecut=    50.00 Ry     beta= 0.70
     CG style diagonalization
     ethr =  3.04E-07,  avg # of iterations =  3.4

     total cpu time spent up to now is      252.5 secs

     total energy              =    -172.79625112 Ry
     Harris-Foulkes estimate   =    -172.79627742 Ry
     estimated scf accuracy    <       0.00013598 Ry

     iteration # 37     ecut=    50.00 Ry     beta= 0.70
     CG style diagonalization
     c_bands:  1 eigenvalues not converged
     ethr =  3.04E-07,  avg # of iterations =  3.2

     total cpu time spent up to now is      258.2 secs

     total energy              =    -172.79627001 Ry
     Harris-Foulkes estimate   =    -172.79626539 Ry
     estimated scf accuracy    <       0.00000424 Ry

     iteration # 38     ecut=    50.00 Ry     beta= 0.70
     CG style diagonalization
     ethr =  2.18E-08,  avg # of iterations =  4.7

     total cpu time spent up to now is      266.1 secs

     total energy              =    -172.79625917 Ry
     Harris-Foulkes estimate   =    -172.79628654 Ry
     estimated scf accuracy    <       0.00021672 Ry

     iteration # 39     ecut=    50.00 Ry     beta= 0.70
     CG style diagonalization
     ethr =  2.18E-08,  avg # of iterations =  4.2

     total cpu time spent up to now is      273.3 secs

     total energy              =    -172.79626447 Ry
     Harris-Foulkes estimate   =    -172.79626793 Ry
     estimated scf accuracy    <       0.00001945 Ry

     iteration # 40     ecut=    50.00 Ry     beta= 0.70
     CG style diagonalization
     ethr =  2.18E-08,  avg # of iterations =  3.7

     total cpu time spent up to now is      279.7 secs

     total energy              =    -172.79626673 Ry
     Harris-Foulkes estimate   =    -172.79626753 Ry
     estimated scf accuracy    <       0.00000392 Ry

     iteration # 41     ecut=    50.00 Ry     beta= 0.70
     CG style diagonalization
     ethr =  2.01E-08,  avg # of iterations =  3.1

     total cpu time spent up to now is      285.3 secs

     End of self-consistent calculation

          k = 0.0312 0.0312 0.0312 (  1027 PWs)   bands (ev):

   -41.7210 -18.1144 -18.1135 -18.1135   7.6511  11.0879  11.0879  13.6862
    13.6862  13.7269  15.8767  15.8767  17.6706  17.7584

     occupation numbers 
     1.0000   1.0000   1.0000   1.0000   1.0000   1.0000   1.0000   0.9624
     0.9624   0.9499   0.0000   0.0000   0.0000   0.0000

          k = 0.0312 0.0312 0.0938 (  1031 PWs)   bands (ev):

   -41.7182 -18.1388 -18.1123 -18.1118   7.8097  11.1605  11.1700  13.6591
    13.6747  13.7751  15.7892  15.9135  17.4305  17.5456

     occupation numbers 
     1.0000   1.0000   1.0000   1.0000   1.0000   1.0000   1.0000   0.9690
     0.9653   0.9301   0.0000   0.0000   0.0000   0.0000

          k = 0.0312 0.0312 0.1562 (  1042 PWs)   bands (ev):

   -41.7132 -18.1847 -18.1092 -18.1088   8.1196  11.3028  11.3194  13.6345
    13.6554  13.8422  15.6190  15.9750  17.0828  17.1887

     occupation numbers 
     1.0000   1.0000   1.0000   1.0000   1.0000   1.0000   1.0000   0.9740
     0.9698   0.8904   0.0000   0.0000   0.0000   0.0000

          k = 0.0312 0.0312 0.2188 (  1042 PWs)   bands (ev):

   -41.7066 -18.2442 -18.1051 -18.1048   8.5659  11.5063  11.5087  13.6155
    13.6341  13.9239  15.3761  16.0320  16.6922  16.7728

     occupation numbers 
     1.0000   1.0000   1.0000   1.0000   1.0000   1.0000   1.0000   0.9773
     0.9740   0.8168   0.0001   0.0000   0.0000   0.0000

          k = 0.0312 0.0312 0.2812 (  1054 PWs)   bands (ev):

   -41.6994 -18.3081 -18.1006 -18.1004   9.1249  11.6861  11.7675  13.6070
    13.6161  14.0101  15.0775  16.0203  16.3389  16.3657

     occupation numbers 
     1.0000   1.0000   1.0000   1.0000   1.0000   1.0000   1.0000   0.9786
     0.9772   0.7030   0.0009   0.0000   0.0000   0.0000

          k = 0.0312 0.0312 0.3438 (  1053 PWs)   bands (ev):

   -41.6928 -18.3666 -18.0965 -18.0964   9.7609  11.7988  12.0603  13.6028
    13.6125  14.0859  14.7515  15.8414  16.0159  16.1116

     occupation numbers 
     1.0000   1.0000   1.0000   1.0000   1.0000   1.0000   1.0000   0.9793
     0.9778   0.5755   0.0101   0.0000   0.0000   0.0000

          k = 0.0312 0.0312 0.4062 (  1056 PWs)   bands (ev):

   -41.6877 -18.4111 -18.0934 -18.0934  10.4182  11.7733  12.3500  13.5880
    13.6301  14.1377  14.4470  15.5967  15.7590  15.9383

     occupation numbers 
     1.0000   1.0000   1.0000   1.0000   1.0000   1.0000   1.0000   0.9814
     0.9748   0.4808   0.0870   0.0000   0.0000   0.0000

          k = 0.0312 0.0312 0.4688 (  1046 PWs)   bands (ev):

   -41.6849 -18.4351 -18.0917 -18.0917  10.9972  11.5641  12.5561  13.5665
    13.6479  14.1613  14.2492  15.4256  15.6224  15.8200

     occupation numbers 
     1.0000   1.0000   1.0000   1.0000   1.0000   1.0000   1.0000   0.9840
     0.9714   0.4378   0.2898   0.0001   0.0000   0.0000

          k = 0.0312 0.0938 0.0938 (  1043 PWs)   bands (ev):

   -41.7155 -18.1394 -18.1343 -18.1103   7.9654  11.2320  11.2502  13.6018
    13.6533  13.8470  15.7782  15.8910  17.1694  17.3957

     occupation numbers 
     1.0000   1.0000   1.0000   1.0000   1.0000   1.0000   1.0000   0.9794
     0.9702   0.8870   0.0000   0.0000   0.0000   0.0000

          k = 0.0312 0.0938 0.1562 (  1043 PWs)   bands (ev):

   -41.7105 -18.1827 -18.1332 -18.1071   8.2690  11.3636  11.4037  13.5449
    13.6228  13.9233  15.6530  15.9402  16.8360  17.0639

     occupation numbers 
     1.0000   1.0000   1.0000   1.0000   1.0000   1.0000   1.0000   0.9863
     0.9761   0.8174   0.0000   0.0000   0.0000   0.0000

          k = 0.0312 0.0938 0.2188 (  1046 PWs)   bands (ev):

   -41.7040 -18.2417 -18.1288 -18.1030   8.7050  11.5442  11.6046  13.5032
    13.5868  13.9874  15.4471  15.9997  16.4987  16.6814

     occupation numbers 
     1.0000   1.0000   1.0000   1.0000   1.0000   1.0000   1.0000   0.9899
     0.9815   0.7366   0.0001   0.0000   0.0000   0.0000

          k = 0.0312 0.0938 0.2812 (  1047 PWs)   bands (ev):

   -41.6969 -18.3051 -18.1240 -18.0985   9.2487  11.7308  11.8383  13.4826
    13.5519  14.0231  15.1924  15.9347  16.2820  16.3351

     occupation numbers 
     1.0000   1.0000   1.0000   1.0000   1.0000   1.0000   1.0000   0.9913
     0.9856   0.6825   0.0004   0.0000   0.0000   0.0000

          k = 0.0312 0.0938 0.3438 (  1052 PWs)   bands (ev):

   -41.6903 -18.3631 -18.1195 -18.0943   9.8632  11.8431  12.1042  13.4800
    13.5279  14.0191  14.9201  15.6867  16.0748  16.2277

     occupation numbers 
     1.0000   1.0000   1.0000   1.0000   1.0000   1.0000   1.0000   0.9915
     0.9879   0.6889   0.0029   0.0000   0.0000   0.0000

          k = 0.0312 0.0938 0.4062 (  1052 PWs)   bands (ev):

   -41.6853 -18.4073 -18.1161 -18.0911  10.4925  11.8106  12.3685  13.4579
    13.5460  13.9822  14.6806  15.4344  15.8988  16.1789

     occupation numbers 
     1.0000   1.0000   1.0000   1.0000   1.0000   1.0000   1.0000   0.9928
     0.9862   0.7439   0.0168   0.0001   0.0000   0.0000

          k = 0.0312 0.0938 0.4688 (  1055 PWs)   bands (ev):

   -41.6825 -18.4311 -18.1142 -18.0894  11.0386  11.6050  12.5555  13.4193
    13.5833  13.9431  14.5401  15.2687  15.7975  17.2145

     occupation numbers 
     1.0000   1.0000   1.0000   1.0000   1.0000   1.0000   1.0000   0.9945
     0.9820   0.7947   0.0459   0.0002   0.0000   0.0000

          k = 0.0312 0.1562 0.1562 (  1045 PWs)   bands (ev):

   -41.7056 -18.1840 -18.1727 -18.1038   8.5592  11.4699  11.5685  13.4467
    13.5741  13.9906  15.6580  15.9215  16.5374  16.7861

     occupation numbers 
     1.0000   1.0000   1.0000   1.0000   1.0000   1.0000   1.0000   0.9933
     0.9831   0.7320   0.0000   0.0000   0.0000   0.0000

          k = 0.0312 0.1562 0.2188 (  1048 PWs)   bands (ev):

   -41.6992 -18.2373 -18.1724 -18.0994   8.9729  11.6094  11.7869  13.3666
    13.5186  14.0097  15.5535  15.9559  16.2550  16.5069

     occupation numbers 
     1.0000   1.0000   1.0000   1.0000   1.0000   1.0000   1.0000   0.9963
     0.9887   0.7035   0.0000   0.0000   0.0000   0.0000

          k = 0.0312 0.1562 0.2812 (  1047 PWs)   bands (ev):

   -41.6922 -18.2996 -18.1670 -18.0947   9.4825  11.7506  12.0298  13.3159
    13.4702  13.9649  15.3782  15.8003  16.1939  16.3301

     occupation numbers 
     1.0000   1.0000   1.0000   1.0000   1.0000   1.0000   1.0000   0.9974
     0.9921   0.7674   0.0001   0.0000   0.0000   0.0000

          k = 0.0312 0.1562 0.3438 (  1052 PWs)   bands (ev):

   -41.6858 -18.3568 -18.1618 -18.0903  10.0475  11.8363  12.2724  13.2986
    13.4469  13.8656  15.1773  15.5342  16.1880  16.3338

     occupation numbers 
     1.0000   1.0000   1.0000   1.0000   1.0000   1.0000   1.0000   0.9977
     0.9933   0.8725   0.0004   0.0000   0.0000   0.0000

          k = 0.0312 0.1562 0.4062 (  1054 PWs)   bands (ev):

   -41.6808 -18.4002 -18.1578 -18.0869  10.6102  11.7985  12.4878  13.3060
    13.4680  13.7453  15.0036  15.3043  16.1278  16.4277

     occupation numbers 
     1.0000   1.0000   1.0000   1.0000   1.0000   1.0000   1.0000   0.9976
     0.9922   0.9431   0.0016   0.0002   0.0000   0.0000

          k = 0.0312 0.1562 0.4688 (  1059 PWs)   bands (ev):

   -41.6781 -18.4237 -18.1557 -18.0851  11.0757  11.6232  12.6266  13.3174
    13.5209  13.6469  14.9221  15.1374  16.0776  16.4988

     occupation numbers 
     1.0000   1.0000   1.0000   1.0000   1.0000   1.0000   1.0000   0.9974
     0.9885   0.9715   0.0029   0.0006   0.0000   0.0000

          k = 0.0312 0.2188 0.2188 (  1052 PWs)   bands (ev):

   -41.6929 -18.2380 -18.2225 -18.0947   9.3482  11.6868  12.0303  13.2457
    13.4522  13.9512  15.6127  15.9690  15.9698  16.4037

     occupation numbers 
     1.0000   1.0000   1.0000   1.0000   1.0000   1.0000   1.0000   0.9985
     0.9930   0.7849   0.0000   0.0000   0.0000   0.0000

          k = 0.0312 0.2188 0.2812 (  1051 PWs)   bands (ev):

   -41.6861 -18.2926 -18.2225 -18.0897   9.7976  11.7494  12.3018  13.1575
    13.4156  13.8183  15.5701  15.6802  16.0840  16.4154

     occupation numbers 
     1.0000   1.0000   1.0000   1.0000   1.0000   1.0000   1.0000   0.9992
     0.9947   0.9064   0.0000   0.0000   0.0000   0.0000

          k = 0.0312 0.2188 0.3438 (  1050 PWs)   bands (ev):

   -41.6798 -18.3484 -18.2167 -18.0850  10.2739  11.7619  12.5584  13.1117
    13.4449  13.6482  15.4172  15.4899  16.2125  16.5258

     occupation numbers 
     1.0000   1.0000   1.0000   1.0000   1.0000   1.0000   1.0000   0.9994
     0.9934   0.9713   0.0001   0.0000   0.0000   0.0000

          k = 0.0312 0.2188 0.4062 (  1052 PWs)   bands (ev):

   -41.6750 -18.3911 -18.2120 -18.0814  10.7180  11.6950  12.7487  13.1121
    13.4734  13.5758  15.1977  15.4038  16.2882  16.7033

     occupation numbers 
     1.0000   1.0000   1.0000   1.0000   1.0000   1.0000   1.0000   0.9994
     0.9919   0.9829   0.0004   0.0001   0.0000   0.0000

          k = 0.0312 0.2188 0.4688 (  1062 PWs)   bands (ev):

   -41.6724 -18.4140 -18.2095 -18.0794  11.0491  11.5656  12.8431  13.1496
    13.3475  13.7227  15.0492  15.3384  16.3144  16.8600

     occupation numbers 
     1.0000   1.0000   1.0000   1.0000   1.0000   1.0000   0.9999   0.9992
     0.9968   0.9514   0.0011   0.0001   0.0000   0.0000

          k = 0.0312 0.2812 0.2812 (  1052 PWs)   bands (ev):

   -41.6795 -18.2913 -18.2760 -18.0842  10.1510  11.7185  12.6148  13.0313
    13.4292  13.6185  15.5398  15.7569  16.0272  16.5735

     occupation numbers 
     1.0000   1.0000   1.0000   1.0000   1.0000   1.0000   1.0000   0.9997
     0.9941   0.9768   0.0000   0.0000   0.0000   0.0000

          k = 0.0312 0.2812 0.3438 (  1052 PWs)   bands (ev):

   -41.6734 -18.3396 -18.2755 -18.0792  10.4911  11.6498  12.9128  12.9518
    13.4090  13.5588  15.4333  15.7472  16.1494  16.7759

     occupation numbers 
     1.0000   1.0000   1.0000   1.0000   1.0000   1.0000   0.9999   0.9998
     0.9949   0.9849   0.0001   0.0000   0.0000   0.0000

          k = 0.0312 0.2812 0.4062 (  1056 PWs)   bands (ev):

   -41.6687 -18.3811 -18.2703 -18.0754  10.7716  11.5502  12.9247  13.1074
    13.2383  13.8369  15.2506  15.7243  16.3216  16.9995

     occupation numbers 
     1.0000   1.0000   1.0000   1.0000   1.0000   1.0000   0.9999   0.9994
     0.9985   0.8942   0.0003   0.0000   0.0000   0.0000

          k = 0.0312 0.2812 0.4688 (  1059 PWs)   bands (ev):

   -41.6661 -18.4036 -18.2673 -18.0733  10.9506  11.4566  12.9529  13.0587
    13.2435  14.1506  15.0308  15.7203  16.4367  17.1958

     occupation numbers 
     1.0000   1.0000   1.0000   1.0000   1.0000   1.0000   0.9998   0.9996
     0.9985   0.4572   0.0013   0.0000   0.0000   0.0000

          k = 0.0312 0.3438 0.3438 (  1050 PWs)   bands (ev):

   -41.6674 -18.3359 -18.3249 -18.0739  10.6594  11.5243  12.8362  13.1829
    13.2881  13.7946  15.4797  15.9741  16.0758  17.0325

     occupation numbers 
     1.0000   1.0000   1.0000   1.0000   1.0000   1.0000   0.9999   0.9990
     0.9979   0.9202   0.0000   0.0000   0.0000   0.0000

          k = 0.0312 0.3438 0.4062 (  1052 PWs)   bands (ev):

   -41.6628 -18.3719 -18.3236 -18.0699  10.7690  11.4120  12.7788  12.9952
    13.5719  14.1741  15.4083  16.0009  16.2430  17.2767

     occupation numbers 
     1.0000   1.0000   1.0000   1.0000   1.0000   1.0000   1.0000   0.9998
     0.9834   0.4148   0.0001   0.0000   0.0000   0.0000

          k = 0.0312 0.3438 0.4688 (  1054 PWs)   bands (ev):

   -41.6604 -18.3939 -18.3203 -18.0677  10.8246  11.3426  12.7839  12.8621
    13.7034  14.6435  15.1155  16.0452  16.4074  17.4836

     occupation numbers 
     1.0000   1.0000   1.0000   1.0000   1.0000   1.0000   0.9999   0.9999
     0.9575   0.0220   0.0007   0.0000   0.0000   0.0000

          k = 0.0312 0.4062 0.4062 (  1048 PWs)   bands (ev):

   -41.6583 -18.3670 -18.3621 -18.0656  10.7403  11.3084  12.6893  12.8233
    13.9823  14.5161  15.6130  16.0740  16.2416  17.5128

     occupation numbers 
     1.0000   1.0000   1.0000   1.0000   1.0000   1.0000   1.0000   0.9999
     0.7438   0.0543   0.0000   0.0000   0.0000   0.0000

          k = 0.0312 0.4062 0.4688 (  1048 PWs)   bands (ev):

   -41.6559 -18.3865 -18.3607 -18.0634  10.7172  11.2538  12.6652  12.7113
    14.1930  14.8900  15.5023  16.1923  16.3051  17.7047

     occupation numbers 
     1.0000   1.0000   1.0000   1.0000   1.0000   1.0000   1.0000   1.0000
     0.3815   0.0037   0.0000   0.0000   0.0000   0.0000

          k = 0.0312 0.4688 0.4688 (  1048 PWs)   bands (ev):

   -41.6535 -18.3828 -18.3822 -18.0610  10.6571  11.2060  12.6107  12.6260
    14.5215  15.0192  15.8951  15.9948  16.3739  17.8156

     occupation numbers 
     1.0000   1.0000   1.0000   1.0000   1.0000   1.0000   1.0000   1.0000
     0.0523   0.0014   0.0000   0.0000   0.0000   0.0000

          k = 0.0938 0.0938 0.0938 (  1048 PWs)   bands (ev):

   -41.7129 -18.1396 -18.1327 -18.1327   8.1185  11.3157  11.3157  13.5824
    13.5824  13.9110  15.8248  15.8249  16.8789  17.5282

     occupation numbers 
     1.0000   1.0000   1.0000   1.0000   1.0000   1.0000   1.0000   0.9821
     0.9821   0.8306   0.0000   0.0000   0.0000   0.0000

          k = 0.0938 0.0938 0.1562 (  1049 PWs)   bands (ev):

   -41.7079 -18.1807 -18.1329 -18.1295   8.4167  11.4437  11.4675  13.5067
    13.5469  13.9699  15.6965  15.9040  16.5726  17.1681

     occupation numbers 
     1.0000   1.0000   1.0000   1.0000   1.0000   1.0000   1.0000   0.9897
     0.9862   0.7608   0.0000   0.0000   0.0000   0.0000

          k = 0.0938 0.0938 0.2188 (  1048 PWs)   bands (ev):

   -41.7014 -18.2392 -18.1280 -18.1255   8.8439  11.6276  11.6554  13.4501
    13.5004  13.9936  15.5146  15.9705  16.3274  16.7526

     occupation numbers 
     1.0000   1.0000   1.0000   1.0000   1.0000   1.0000   1.0000   0.9932
     0.9901   0.7276   0.0000   0.0000   0.0000   0.0000

          k = 0.0938 0.0938 0.2812 (  1047 PWs)   bands (ev):

   -41.6944 -18.3021 -18.1226 -18.1210   9.3743  11.8300  11.8560  13.4263
    13.4465  13.9693  15.2949  15.9000  16.2740  16.3506

     occupation numbers 
     1.0000   1.0000   1.0000   1.0000   1.0000   1.0000   1.0000   0.9942
     0.9933   0.7615   0.0002   0.0000   0.0000   0.0000

          k = 0.0938 0.0938 0.3438 (  1055 PWs)   bands (ev):

   -41.6879 -18.3598 -18.1176 -18.1170   9.9699  11.9258  12.1103  13.3848
    13.4474  13.9098  15.0635  15.7143  16.0103  16.3558

     occupation numbers 
     1.0000   1.0000   1.0000   1.0000   1.0000   1.0000   1.0000   0.9958
     0.9933   0.8318   0.0010   0.0000   0.0000   0.0000

          k = 0.0938 0.0938 0.4062 (  1057 PWs)   bands (ev):

   -41.6829 -18.4036 -18.1138 -18.1138  10.5747  11.8749  12.3575  13.3120
    13.5208  13.8456  14.8616  15.4883  15.7649  16.4614

     occupation numbers 
     1.0000   1.0000   1.0000   1.0000   1.0000   1.0000   1.0000   0.9975
     0.9885   0.8879   0.0045   0.0000   0.0000   0.0000

          k = 0.0938 0.0938 0.4688 (  1059 PWs)   bands (ev):

   -41.6802 -18.4272 -18.1121 -18.1117  11.0937  11.6633  12.5321  13.2441
    13.6162  13.7926  14.7408  15.3048  15.6365  16.5454

     occupation numbers 
     1.0000   1.0000   1.0000   1.0000   1.0000   1.0000   1.0000   0.9985
     0.9772   0.9213   0.0109   0.0002   0.0000   0.0000

          k = 0.0938 0.1562 0.1562 (  1054 PWs)   bands (ev):

   -41.7030 -18.1816 -18.1710 -18.1275   8.7034  11.5591  11.6202  13.4177
    13.4832  13.9867  15.7164  15.8864  16.3382  16.9893

     occupation numbers 
     1.0000   1.0000   1.0000   1.0000   1.0000   1.0000   1.0000   0.9946
     0.9913   0.7375   0.0000   0.0000   0.0000   0.0000

          k = 0.0938 0.1562 0.2188 (  1054 PWs)   bands (ev):

   -41.6966 -18.2348 -18.1703 -18.1229   9.1111  11.7044  11.8261  13.3323
    13.4219  13.9377  15.6176  15.9371  16.2062  16.6463

     occupation numbers 
     1.0000   1.0000   1.0000   1.0000   1.0000   1.0000   1.0000   0.9971
     0.9944   0.8011   0.0000   0.0000   0.0000   0.0000

          k = 0.0938 0.1562 0.2812 (  1050 PWs)   bands (ev):

   -41.6897 -18.2967 -18.1648 -18.1179   9.6114  11.8572  12.0426  13.2761
    13.3663  13.8336  15.4643  15.8600  16.2412  16.3663

     occupation numbers 
     1.0000   1.0000   1.0000   1.0000   1.0000   1.0000   1.0000   0.9981
     0.9963   0.8965   0.0001   0.0000   0.0000   0.0000

          k = 0.0938 0.1562 0.3438 (  1051 PWs)   bands (ev):

   -41.6833 -18.3536 -18.1596 -18.1132  10.1629  11.9507  12.2470  13.2339
    13.3579  13.7227  15.2970  15.6473  16.0642  16.5127

     occupation numbers 
     1.0000   1.0000   1.0000   1.0000   1.0000   1.0000   1.0000   0.9986
     0.9965   0.9514   0.0002   0.0000   0.0000   0.0000

          k = 0.0938 0.1562 0.4062 (  1053 PWs)   bands (ev):

   -41.6784 -18.3968 -18.1556 -18.1096  10.7079  11.8996  12.4336  13.1776
    13.4367  13.6492  15.1495  15.3977  15.8791  16.7580

     occupation numbers 
     1.0000   1.0000   1.0000   1.0000   1.0000   1.0000   1.0000   0.9991
     0.9938   0.9711   0.0005   0.0001   0.0000   0.0000

          k = 0.0938 0.1562 0.4688 (  1054 PWs)   bands (ev):

   -41.6757 -18.4201 -18.1534 -18.1077  11.1562  11.7099  12.5628  13.1270
    13.5326  13.6260  15.0672  15.2018  15.7621  16.9678

     occupation numbers 
     1.0000   1.0000   1.0000   1.0000   1.0000   1.0000   1.0000   0.9994
     0.9875   0.9755   0.0010   0.0004   0.0000   0.0000

          k = 0.0938 0.2188 0.2188 (  1052 PWs)   bands (ev):

   -41.6904 -18.2351 -18.2207 -18.1181   9.4849  11.7875  12.0616  13.2120
    13.3533  13.8051  15.6721  15.9563  16.1050  16.4850

     occupation numbers 
     1.0000   1.0000   1.0000   1.0000   1.0000   1.0000   1.0000   0.9988
     0.9966   0.9144   0.0000   0.0000   0.0000   0.0000

          k = 0.0938 0.2188 0.2812 (  1047 PWs)   bands (ev):

   -41.6836 -18.2898 -18.2203 -18.1128   9.9309  11.8578  12.3144  13.1221
    13.3095  13.6401  15.6294  15.8285  16.1093  16.5038

     occupation numbers 
     1.0000   1.0000   1.0000   1.0000   1.0000   1.0000   1.0000   0.9994
     0.9976   0.9729   0.0000   0.0000   0.0000   0.0000

          k = 0.0938 0.2188 0.3438 (  1045 PWs)   bands (ev):

   -41.6773 -18.3455 -18.2145 -18.1079  10.4005  11.8756  12.5313  13.0672
    13.3381  13.5026  15.5412  15.5739  16.1164  16.7275

     occupation numbers 
     1.0000   1.0000   1.0000   1.0000   1.0000   1.0000   1.0000   0.9996
     0.9970   0.9900   0.0000   0.0000   0.0000   0.0000

          k = 0.0938 0.2188 0.4062 (  1047 PWs)   bands (ev):

   -41.6725 -18.3880 -18.2098 -18.1042  10.8342  11.8056  12.6692  13.0414
    13.3663  13.5344  15.2968  15.4901  16.0278  17.0559

     occupation numbers 
[...]
    13.2192  13.8963  15.0736  15.7074  16.0238  17.4980

     occupation numbers 
     1.0000   1.0000   1.0000   1.0000   1.0000   1.0000   1.0000   0.9999
     0.9987   0.8453   0.0010   0.0000   0.0000   0.0000

          k = 0.1562 0.3438 0.3438 (  1046 PWs)   bands (ev):

   -41.6604 -18.3279 -18.3195 -18.1389  11.0611  11.8349  12.7609  12.9241
    13.2166  13.3981  15.4573  15.8260  16.2567  17.3664

     occupation numbers 
     1.0000   1.0000   1.0000   1.0000   1.0000   1.0000   1.0000   0.9999
     0.9988   0.9953   0.0001   0.0000   0.0000   0.0000

          k = 0.1562 0.3438 0.4062 (  1046 PWs)   bands (ev):

   -41.6558 -18.3650 -18.3176 -18.1347  11.1517  11.7235  12.7054  12.8154
    13.4406  13.7925  15.3148  15.7092  16.3167  17.5047

     occupation numbers 
     1.0000   1.0000   1.0000   1.0000   1.0000   1.0000   1.0000   0.9999
     0.9936   0.9213   0.0002   0.0000   0.0000   0.0000

          k = 0.1562 0.3438 0.4688 (  1043 PWs)   bands (ev):

   -41.6533 -18.3870 -18.3145 -18.1325  11.1863  11.6591  12.6968  12.7350
    13.5389  14.2393  15.0488  15.6533  16.3239  17.6063

     occupation numbers 
     1.0000   1.0000   1.0000   1.0000   1.0000   1.0000   1.0000   1.0000
     0.9869   0.3050   0.0011   0.0000   0.0000   0.0000

          k = 0.1562 0.4062 0.4062 (  1046 PWs)   bands (ev):

   -41.6513 -18.3603 -18.3566 -18.1306  11.1159  11.6257  12.6325  12.7174
    13.8441  14.0980  15.3158  15.5310  16.4650  17.6544

     occupation numbers 
     1.0000   1.0000   1.0000   1.0000   1.0000   1.0000   1.0000   1.0000
     0.8891   0.5536   0.0002   0.0000   0.0000   0.0000

          k = 0.1562 0.4062 0.4688 (  1040 PWs)   bands (ev):

   -41.6488 -18.3804 -18.3550 -18.1283  11.0855  11.5750  12.6092  12.6398
    14.0245  14.5500  15.0790  15.4604  16.5178  17.7817

     occupation numbers 
     1.0000   1.0000   1.0000   1.0000   1.0000   1.0000   1.0000   1.0000
     0.6804   0.0428   0.0009   0.0001   0.0000   0.0000

          k = 0.1562 0.4688 0.4688 (  1040 PWs)   bands (ev):

   -41.6464 -18.3771 -18.3766 -18.1260  11.0276  11.5289  12.5651  12.5762
    14.4450  14.7765  15.1070  15.1696  16.5954  17.9512

     occupation numbers 
     1.0000   1.0000   1.0000   1.0000   1.0000   1.0000   1.0000   1.0000
     0.0882   0.0084   0.0007   0.0005   0.0000   0.0000

          k = 0.2188 0.2188 0.2188 (  1039 PWs)   bands (ev):

   -41.6796 -18.2262 -18.2130 -18.2130  10.1079  12.2012  12.2012  13.0715
    13.0715  13.2769  15.8818  15.8824  16.6342  16.7438

     occupation numbers 
     1.0000   1.0000   1.0000   1.0000   1.0000   1.0000   1.0000   0.9996
     0.9996   0.9981   0.0000   0.0000   0.0000   0.0000

          k = 0.2188 0.2188 0.2812 (  1046 PWs)   bands (ev):

   -41.6730 -18.2781 -18.2131 -18.2082  10.5271  12.2935  12.3840  12.9846
    12.9861  13.0819  15.8115  15.8892  16.4104  16.8979

     occupation numbers 
     1.0000   1.0000   1.0000   1.0000   1.0000   1.0000   1.0000   0.9998
     0.9998   0.9995   0.0000   0.0000   0.0000   0.0000

          k = 0.2188 0.2188 0.3438 (  1048 PWs)   bands (ev):

   -41.6668 -18.3329 -18.2060 -18.2038  10.9427  12.3419  12.3861  12.9046
    13.0108  13.1208  15.7158  15.7222  16.1692  17.1488

     occupation numbers 
     1.0000   1.0000   1.0000   1.0000   1.0000   1.0000   1.0000   0.9999
     0.9997   0.9994   0.0000   0.0000   0.0000   0.0000

          k = 0.2188 0.2188 0.4062 (  1051 PWs)   bands (ev):

   -41.6621 -18.3747 -18.2005 -18.2004  11.2890  12.1479  12.4666  12.8356
    13.0901  13.3764  15.4172  15.6141  16.0298  17.3459

     occupation numbers 
     1.0000   1.0000   1.0000   1.0000   1.0000   1.0000   1.0000   0.9999
     0.9995   0.9960   0.0001   0.0000   0.0000   0.0000

          k = 0.2188 0.2188 0.4688 (  1044 PWs)   bands (ev):

   -41.6596 -18.3973 -18.1987 -18.1974  11.5203  11.9694  12.5181  12.7914
    13.1514  13.6468  15.1229  15.5492  15.9692  17.4480

     occupation numbers 
     1.0000   1.0000   1.0000   1.0000   1.0000   1.0000   1.0000   0.9999
     0.9992   0.9716   0.0007   0.0000   0.0000   0.0000

          k = 0.2188 0.2812 0.2812 (  1046 PWs)   bands (ev):

   -41.6664 -18.2750 -18.2661 -18.2046  10.9062  12.3123  12.6311  12.8499
    12.8719  12.9440  15.7424  15.8530  16.4424  16.9258

     occupation numbers 
     1.0000   1.0000   1.0000   1.0000   1.0000   1.0000   1.0000   0.9999
     0.9999   0.9998   0.0000   0.0000   0.0000   0.0000

          k = 0.2188 0.2812 0.3438 (  1046 PWs)   bands (ev):

   -41.6604 -18.3253 -18.2637 -18.1990  11.2409  12.2198  12.6568  12.7997
    12.9567  13.0290  15.5851  15.7257  16.3797  17.1359

     occupation numbers 
     1.0000   1.0000   1.0000   1.0000   1.0000   1.0000   1.0000   0.9999
     0.9998   0.9997   0.0000   0.0000   0.0000   0.0000

          k = 0.2188 0.2812 0.4062 (  1047 PWs)   bands (ev):

   -41.6557 -18.3666 -18.2589 -18.1947  11.4655  12.0772  12.6203  12.7556
    13.0450  13.3939  15.3396  15.5752  16.3223  17.3647

     occupation numbers 
     1.0000   1.0000   1.0000   1.0000   1.0000   1.0000   1.0000   1.0000
     0.9996   0.9955   0.0001   0.0000   0.0000   0.0000

          k = 0.2188 0.2812 0.4688 (  1042 PWs)   bands (ev):

   -41.6532 -18.3889 -18.2562 -18.1923  11.5783  11.9701  12.6085  12.7335
    13.1188  13.7295  15.0571  15.5022  16.2929  17.4981

     occupation numbers 
     1.0000   1.0000   1.0000   1.0000   1.0000   1.0000   1.0000   1.0000
     0.9994   0.9490   0.0011   0.0000   0.0000   0.0000

          k = 0.2188 0.3438 0.3438 (  1045 PWs)   bands (ev):

   -41.6544 -18.3211 -18.3149 -18.1935  11.4348  12.0759  12.7038  12.7746
    13.0998  13.1404  15.4513  15.6214  16.5215  17.2618

     occupation numbers 
     1.0000   1.0000   1.0000   1.0000   1.0000   1.0000   1.0000   1.0000
     0.9995   0.9993   0.0001   0.0000   0.0000   0.0000

          k = 0.2188 0.3438 0.4062 (  1047 PWs)   bands (ev):

   -41.6498 -18.3591 -18.3124 -18.1893  11.5040  11.9637  12.6523  12.7177
    13.2639  13.5381  15.2720  15.4716  16.5695  17.4700

     occupation numbers 
     1.0000   1.0000   1.0000   1.0000   1.0000   1.0000   1.0000   1.0000
     0.9982   0.9870   0.0002   0.0001   0.0000   0.0000

          k = 0.2188 0.3438 0.4688 (  1046 PWs)   bands (ev):

   -41.6473 -18.3812 -18.3096 -18.1870  11.5139  11.9039  12.6361  12.6693
    13.3574  13.9372  15.0018  15.4103  16.5785  17.6147

     occupation numbers 
     1.0000   1.0000   1.0000   1.0000   1.0000   1.0000   1.0000   1.0000
     0.9965   0.8018   0.0016   0.0001   0.0000   0.0000

          k = 0.2188 0.4062 0.4062 (  1044 PWs)   bands (ev):

   -41.6453 -18.3547 -18.3519 -18.1852  11.4643  11.8809  12.5927  12.6595
    13.6853  13.7346  15.2361  15.2541  16.7087  17.6559

     occupation numbers 
     1.0000   1.0000   1.0000   1.0000   1.0000   1.0000   1.0000   1.0000
     0.9626   0.9472   0.0003   0.0003   0.0000   0.0000

          k = 0.2188 0.4062 0.4688 (  1042 PWs)   bands (ev):

   -41.6428 -18.3753 -18.3502 -18.1829  11.4269  11.8375  12.5729  12.5993
    13.8042  14.1590  14.9531  15.2328  16.7592  17.8062

     occupation numbers 
     1.0000   1.0000   1.0000   1.0000   1.0000   1.0000   1.0000   1.0000
     0.9149   0.4420   0.0023   0.0003   0.0000   0.0000

          k = 0.2188 0.4688 0.4688 (  1029 PWs)   bands (ev):

   -41.6403 -18.3723 -18.3719 -18.1807  11.3737  11.7991  12.5357  12.5460
    14.2308  14.3176  14.8001  15.0838  16.8328  17.9718

     occupation numbers 
     1.0000   1.0000   1.0000   1.0000   1.0000   1.0000   1.0000   1.0000
     0.3185   0.1980   0.0071   0.0009   0.0000   0.0000

          k = 0.2812 0.2812 0.2812 (  1045 PWs)   bands (ev):

   -41.6599 -18.2693 -18.2612 -18.2612  11.3015  12.5733  12.6272  12.6272
    12.8024  12.8024  15.7087  15.7087  16.7574  16.7574

     occupation numbers 
     1.0000   1.0000   1.0000   1.0000   1.0000   1.0000   1.0000   1.0000
     0.9999   0.9999   0.0000   0.0000   0.0000   0.0000

          k = 0.2812 0.2812 0.3438 (  1038 PWs)   bands (ev):

   -41.6539 -18.3183 -18.2588 -18.2567  11.6246  12.3496  12.6130  12.7459
    12.7897  12.9557  15.5503  15.5587  16.6669  17.0878

     occupation numbers 
     1.0000   1.0000   1.0000   1.0000   1.0000   1.0000   1.0000   1.0000
     0.9999   0.9998   0.0000   0.0000   0.0000   0.0000

          k = 0.2812 0.2812 0.4062 (  1042 PWs)   bands (ev):

   -41.6493 -18.3594 -18.2532 -18.2531  11.7773  12.1829  12.5938  12.7084
    12.9215  13.3087  15.2766  15.4428  16.6228  17.3745

     occupation numbers 
     1.0000   1.0000   1.0000   1.0000   1.0000   1.0000   1.0000   1.0000
     0.9999   0.9976   0.0002   0.0001   0.0000   0.0000

          k = 0.2812 0.2812 0.4688 (  1045 PWs)   bands (ev):

   -41.6468 -18.3816 -18.2513 -18.2500  11.8156  12.0941  12.5806  12.6900
    13.0281  13.6353  14.9987  15.3817  16.6048  17.5392

     occupation numbers 
     1.0000   1.0000   1.0000   1.0000   1.0000   1.0000   1.0000   1.0000
     0.9997   0.9738   0.0017   0.0001   0.0000   0.0000

          k = 0.2812 0.3438 0.3438 (  1038 PWs)   bands (ev):

   -41.6479 -18.3137 -18.3098 -18.2522  11.8798  12.2444  12.6512  12.7436
    12.8145  13.0390  15.4030  15.4275  16.8484  17.2170

     occupation numbers 
     1.0000   1.0000   1.0000   1.0000   1.0000   1.0000   1.0000   1.0000
     0.9999   0.9997   0.0001   0.0001   0.0000   0.0000

          k = 0.2812 0.3438 0.4062 (  1040 PWs)   bands (ev):

   -41.6433 -18.3528 -18.3068 -18.2479  11.9070  12.1596  12.6136  12.7019
    13.0176  13.3394  15.1818  15.3123  16.8851  17.4747

     occupation numbers 
     1.0000   1.0000   1.0000   1.0000   1.0000   1.0000   1.0000   1.0000
     0.9997   0.9970   0.0004   0.0002   0.0000   0.0000

          k = 0.2812 0.3438 0.4688 (  1043 PWs)   bands (ev):

   -41.6408 -18.3749 -18.3042 -18.2456  11.8727  12.1145  12.6100  12.6536
    13.1391  13.6704  14.9312  15.2625  16.8913  17.6474

     occupation numbers 
     1.0000   1.0000   1.0000   1.0000   1.0000   1.0000   1.0000   1.0000
     0.9993   0.9664   0.0027   0.0002   0.0000   0.0000

          k = 0.2812 0.4062 0.4062 (  1039 PWs)   bands (ev):

   -41.6387 -18.3486 -18.3469 -18.2438  11.8723  12.1258  12.5622  12.6575
    13.3738  13.4717  15.0622  15.1606  17.0248  17.6717

     occupation numbers 
     1.0000   1.0000   1.0000   1.0000   1.0000   1.0000   1.0000   1.0000
     0.9961   0.9920   0.0010   0.0005   0.0000   0.0000

          k = 0.2812 0.4062 0.4688 (  1041 PWs)   bands (ev):

   -41.6363 -18.3697 -18.3450 -18.2416  11.8302  12.0978  12.5540  12.5930
    13.5067  13.7801  14.8492  15.1140  17.0716  17.8325

     occupation numbers 
     1.0000   1.0000   1.0000   1.0000   1.0000   1.0000   1.0000   1.0000
     0.9897   0.9277   0.0049   0.0007   0.0000   0.0000

          k = 0.2812 0.4688 0.4688 (  1036 PWs)   bands (ev):

   -41.6338 -18.3670 -18.3668 -18.2395  11.7927  12.0828  12.5185  12.5345
    13.8594  13.8639  14.7066  15.0195  17.1429  17.9903

     occupation numbers 
     1.0000   1.0000   1.0000   1.0000   1.0000   1.0000   1.0000   1.0000
     0.8775   0.8739   0.0140   0.0014   0.0000   0.0000

          k = 0.3438 0.3438 0.3438 (  1039 PWs)   bands (ev):

   -41.6419 -18.3077 -18.3052 -18.3052  12.1853  12.3577  12.6164  12.6164
    12.9224  12.9224  15.2773  15.2773  17.2047  17.2047

     occupation numbers 
     1.0000   1.0000   1.0000   1.0000   1.0000   1.0000   1.0000   1.0000
     0.9999   0.9999   0.0002   0.0002   0.0000   0.0000

          k = 0.3438 0.3438 0.4062 (  1039 PWs)   bands (ev):

   -41.6373 -18.3470 -18.3017 -18.3016  12.1476  12.3326  12.6098  12.8076
    12.8264  13.2102  15.0704  15.1803  17.2054  17.5246

     occupation numbers 
     1.0000   1.0000   1.0000   1.0000   1.0000   1.0000   1.0000   0.9999
     0.9999   0.9988   0.0010   0.0004   0.0000   0.0000

          k = 0.3438 0.3438 0.4688 (  1044 PWs)   bands (ev):

   -41.6348 -18.3690 -18.2997 -18.2988  12.1180  12.2415  12.6357  12.7141
    12.9903  13.5034  14.8616  15.1339  17.2082  17.7176

     occupation numbers 
     1.0000   1.0000   1.0000   1.0000   1.0000   1.0000   1.0000   1.0000
     0.9998   0.9899   0.0045   0.0006   0.0000   0.0000

          k = 0.3438 0.4062 0.4062 (  1038 PWs)   bands (ev):

   -41.6327 -18.3429 -18.3422 -18.2976  12.1710  12.3946  12.5544  12.7578
    13.0800  13.2370  14.9489  15.0477  17.3802  17.6911

     occupation numbers 
     1.0000   1.0000   1.0000   1.0000   1.0000   1.0000   1.0000   1.0000
     0.9995   0.9986   0.0024   0.0012   0.0000   0.0000

          k = 0.3438 0.4062 0.4688 (  1043 PWs)   bands (ev):

   -41.6302 -18.3646 -18.3401 -18.2955  12.1927  12.3087  12.5830  12.6688
    13.2036  13.4658  14.7864  14.9986  17.4200  17.8611

     occupation numbers 
     1.0000   1.0000   1.0000   1.0000   1.0000   1.0000   1.0000   1.0000
     0.9989   0.9923   0.0078   0.0017   0.0000   0.0000

          k = 0.3438 0.4688 0.4688 (  1042 PWs)   bands (ev):

   -41.6277 -18.3622 -18.3621 -18.2934  12.2266  12.3316  12.5265  12.5714
    13.4766  13.4914  14.6822  14.9216  17.4947  18.0065

     occupation numbers 
     1.0000   1.0000   1.0000   1.0000   1.0000   1.0000   1.0000   1.0000
     0.9917   0.9907   0.0166   0.0029   0.0000   0.0000

          k = 0.4062 0.4062 0.4062 (  1046 PWs)   bands (ev):

   -41.6281 -18.3386 -18.3386 -18.3386  12.2666  12.5792  12.5792  12.9244
    13.0218  13.0218  14.8892  14.8892  17.7074  17.7074

     occupation numbers 
     1.0000   1.0000   1.0000   1.0000   1.0000   1.0000   1.0000   0.9999
     0.9997   0.9997   0.0037   0.0037   0.0000   0.0000

          k = 0.4062 0.4062 0.4688 (  1048 PWs)   bands (ev):

   -41.6256 -18.3606 -18.3366 -18.3362  12.3507  12.4695  12.6307  12.8667
    12.9924  13.2590  14.7432  14.8639  17.7165  17.9099

     occupation numbers 
     1.0000   1.0000   1.0000   1.0000   1.0000   1.0000   1.0000   0.9999
     0.9998   0.9983   0.0107   0.0044   0.0000   0.0000

          k = 0.4062 0.4688 0.4688 (  1056 PWs)   bands (ev):

   -41.6231 -18.3585 -18.3585 -18.3344  12.4547  12.5687  12.5738  12.7475
    13.1785  13.1892  14.6752  14.7890  17.8213  18.0186

     occupation numbers 
     1.0000   1.0000   1.0000   1.0000   1.0000   1.0000   1.0000   1.0000
     0.9991   0.9990   0.0175   0.0077   0.0000   0.0000

          k = 0.4688 0.4688 0.4688 (  1064 PWs)   bands (ev):

   -41.6206 -18.3565 -18.3565 -18.3565  12.5633  12.6337  12.6337  12.9895
    12.9895  13.0115  14.6734  14.6734  18.0252  18.0252

     occupation numbers 
     1.0000   1.0000   1.0000   1.0000   1.0000   1.0000   1.0000   0.9998
     0.9998   0.9997   0.0177   0.0177   0.0000   0.0000

     the Fermi energy is    14.1273 ev

!    total energy              =    -172.79626727 Ry
     Harris-Foulkes estimate   =    -172.79626733 Ry
     estimated scf accuracy    <       0.00000007 Ry

     The total energy is the sum of the following terms:

     one-electron contribution =     -28.76102736 Ry
     hartree contribution      =      28.52872828 Ry
     xc contribution           =     -39.67629655 Ry
     ewald contribution        =    -132.88028250 Ry
     smearing contrib. (-TS)   =      -0.00738914 Ry

     convergence has been achieved in  41 iterations

     Forces acting on atoms (cartesian axes, Ry/au):

     atom    1 type  1   force =     0.00000000    0.00000000    0.00000000
     atom    2 type  2   force =     0.00000000    0.00000000    0.00000000
     The non-local contrib.  to forces
     atom    1 type  1   force =     0.00000000    0.00000000    0.00000000
     atom    2 type  2   force =     0.00000000    0.00000000    0.00000000
     The ionic contribution  to forces
     atom    1 type  1   force =    -0.00000000   -0.00000000   -0.00000000
     atom    2 type  2   force =     0.00000000    0.00000000    0.00000000
     The local contribution  to forces
     atom    1 type  1   force =     0.00000000    0.00000000   -0.00000000
     atom    2 type  2   force =     0.00000000    0.00000000    0.00000000
     The core correction contribution to forces
     atom    1 type  1   force =     0.00000000   -0.00000000    0.00000000
     atom    2 type  2   force =     0.00000000    0.00000000    0.00000000
     The Hubbard contrib.    to forces
     atom    1 type  1   force =     0.00000000    0.00000000    0.00000000
     atom    2 type  2   force =     0.00000000    0.00000000    0.00000000
     The SCF correction term to forces
     atom    1 type  1   force =     0.00000000   -0.00000000    0.00000000
     atom    2 type  2   force =     0.00000000    0.00000000   -0.00000000

     Total force =     0.000000     Total SCF correction =     0.000000

     BFGS Geometry Optimization

     bfgs converged in   1 scf cycles and   0 bfgs steps
     (criteria: energy <  1.0E-06 Ry, force <  1.0E-05 Ry/Bohr)

     End of BFGS Geometry Optimization

     Final energy   =    -172.7962672705 Ry
Begin final coordinates

ATOMIC_POSITIONS (alat)
Fe       0.000000000   0.000000000   0.000000000
Ti       0.500000000   0.500000000   0.500000000
End final coordinates



     Writing output data file pwscf.save/

     init_run     :      4.54s CPU      2.66s WALL (       1 calls)
     electrons    :    553.64s CPU    282.30s WALL (       1 calls)
     forces       :      1.51s CPU      0.81s WALL (       1 calls)

     Called by init_run:
     wfcinit      :      3.47s CPU      1.76s WALL (       1 calls)
     wfcinit:atom :      0.08s CPU      0.05s WALL (     120 calls)
     wfcinit:wfcr :      2.95s CPU      1.48s WALL (     120 calls)
     potinit      :      0.03s CPU      0.04s WALL (       1 calls)
     hinit0       :      0.69s CPU      0.66s WALL (       1 calls)

     Called by electrons:
     c_bands      :    479.33s CPU    243.31s WALL (      41 calls)
     sum_band     :     60.31s CPU     31.30s WALL (      41 calls)
     v_of_rho     :      0.32s CPU      0.16s WALL (      42 calls)
     v_h          :      0.10s CPU      0.05s WALL (      42 calls)
     v_xc         :      0.23s CPU      0.11s WALL (      43 calls)
     newd         :     13.55s CPU      7.41s WALL (      42 calls)
     mix_rho      :      0.30s CPU      0.15s WALL (      41 calls)

     Called by c_bands:
     init_us_2    :      8.58s CPU      4.37s WALL (   10080 calls)
     ccgdiagg     :    371.24s CPU    188.83s WALL (    4920 calls)
     wfcrot       :    105.88s CPU     53.33s WALL (    4920 calls)

     Called by sum_band:
     sum_band:bec :      0.22s CPU      0.11s WALL (    4920 calls)
     addusdens    :     13.14s CPU      7.50s WALL (      41 calls)

     Called by *cgdiagg:
     h_psi        :    343.61s CPU    174.35s WALL (  212303 calls)
     s_psi        :     63.39s CPU     32.20s WALL (  419686 calls)
     cdiaghg      :      0.82s CPU      0.42s WALL (    4920 calls)

     Called by h_psi:
     h_psi:pot    :    341.24s CPU    173.13s WALL (  212303 calls)
     h_psi:calbec :     36.95s CPU     18.62s WALL (  212303 calls)
     vloc_psi     :    265.39s CPU    134.90s WALL (  212303 calls)
     add_vuspsi   :     36.90s CPU     18.63s WALL (  212303 calls)
     h_1psi       :    289.91s CPU    147.39s WALL (  207383 calls)

     General routines
     calbec       :     72.00s CPU     36.42s WALL (  425086 calls)
     fft          :      0.43s CPU      0.22s WALL (     255 calls)
     ffts         :      0.06s CPU      0.03s WALL (      83 calls)
     fftw         :    277.81s CPU    141.09s WALL (  621886 calls)
     interpolate  :      0.11s CPU      0.06s WALL (      42 calls)

     Parallel routines

     PWSCF        :  9m21.33s CPU     4m48.06s WALL


   This run was terminated on:  16:24:55  20Jun2019            

=------------------------------------------------------------------------------=
   JOB DONE.
=------------------------------------------------------------------------------=
