
     Program PWSCF v.6.3 starts on 20Jun2019 at 16:35:58 

     This program is part of the open-source Quantum ESPRESSO suite
     for quantum simulation of materials; please cite
         "P. Giannozzi et al., J. Phys.:Condens. Matter 21 395502 (2009);
         "P. Giannozzi et al., J. Phys.:Condens. Matter 29 465901 (2017);
          URL http://www.quantum-espresso.org", 
     in publications or presentations arising from this work. More details at
     http://www.quantum-espresso.org/quote

     Parallel version (MPI & OpenMP), running on       2 processor cores
     Number of MPI processes:                 1
     Threads/MPI process:                     2

     MPI processes distributed on     1 nodes
     Reading input from /home/bokhamala/FeTi/FeTibands.in
Warning: card  &IONS ignored
Warning: card  ION_DYNAMICS ='BFGS' ignored
Warning: card  / ignored
Warning: card  &CELL ignored
Warning: card  CELL_FACTOR = 10 ignored
Warning: card  CELL_DYNAMICS='DAMP-W', ignored
Warning: card  CELL_DOFREE = 'VOLUME' ignored
Warning: card  / ignored

     Current dimensions of program PWSCF are:
     Max number of different atomic species (ntypx) = 10
     Max number of k-points (npk) =  40000
     Max angular momentum in pseudopotentials (lmaxx) =  3

     Atomic positions and unit cell read from directory:
     ./pwscf.save/

               file Fe.pz-nd-rrkjus.UPF: wavefunction(s)  4S renormalized

     Subspace diagonalization in iterative solution of the eigenvalue problem:
     a serial algorithm will be used


     G-vector sticks info
     --------------------
     sticks:   dense  smooth     PW     G-vecs:    dense   smooth      PW
     Sum         997     497    161                23703     8385    1503



     bravais-lattice index     =            1
     lattice parameter (alat)  =       5.6000  a.u.
     unit-cell volume          =     175.6160 (a.u.)^3
     number of atoms/cell      =            2
     number of atomic types    =            2
     number of electrons       =        19.50
     number of Kohn-Sham states=           14
     kinetic-energy cutoff     =      50.0000  Ry
     charge density cutoff     =     400.0000  Ry
     Exchange-correlation      = SLA PZ NOGX NOGC ( 1  1  0  0 0 0)

     celldm(1)=   5.600000  celldm(2)=   0.000000  celldm(3)=   0.000000
     celldm(4)=   0.000000  celldm(5)=   0.000000  celldm(6)=   0.000000

     crystal axes: (cart. coord. in units of alat)
               a(1) = (   1.000000   0.000000   0.000000 )  
               a(2) = (   0.000000   1.000000   0.000000 )  
               a(3) = (   0.000000   0.000000   1.000000 )  

     reciprocal axes: (cart. coord. in units 2 pi/alat)
               b(1) = (  1.000000  0.000000  0.000000 )  
               b(2) = (  0.000000  1.000000  0.000000 )  
               b(3) = (  0.000000  0.000000  1.000000 )  


     PseudoPot. # 1 for Fe read from file:
     /shared/tools/qe/qe-6.3/pseudo/Fe.pz-nd-rrkjus.UPF
     MD5 check sum: b5eb2b1fd79b39c9eac5f7a31bc313a7
     Pseudo is Ultrasoft + core correction, Zval =  8.0
     Generated by new atomic code, or converted to UPF format
     Using radial grid of  957 points,  6 beta functions with: 
                l(1) =   0
                l(2) =   0
                l(3) =   1
                l(4) =   1
                l(5) =   2
                l(6) =   2
     Q(r) pseudized with 0 coefficients 


     PseudoPot. # 2 for Ti read from file:
     /shared/tools/qe/qe-6.3/pseudo/Ti.pz-sp-van_ak.UPF
     MD5 check sum: 93c5ef60b250b0ab110b997ad8a4342c
     Pseudo is Ultrasoft, Zval = 12.0
     Generated by new atomic code, or converted to UPF format
     Using radial grid of  851 points,  6 beta functions with: 
                l(1) =   0
                l(2) =   0
                l(3) =   1
                l(4) =   1
                l(5) =   2
                l(6) =   2
     Q(r) pseudized with  8 coefficients,  rinner =    1.000   1.000   1.000
                                                       1.000   1.000

     atomic species   valence    mass     pseudopotential
        Fe             8.00    55.84500     Fe( 1.00)
        Ti            12.00    47.86700     Ti( 1.00)

     48 Sym. Ops., with inversion, found


                                    s                        frac. trans.

      isym =  1     identity                                     

 cryst.   s( 1) = (     1          0          0      )
                  (     0          1          0      )
                  (     0          0          1      )

 cart.    s( 1) = (  1.0000000  0.0000000  0.0000000 )
                  (  0.0000000  1.0000000  0.0000000 )
                  (  0.0000000  0.0000000  1.0000000 )


      isym =  2     180 deg rotation - cart. axis [0,0,1]        

 cryst.   s( 2) = (    -1          0          0      )
                  (     0         -1          0      )
                  (     0          0          1      )

 cart.    s( 2) = ( -1.0000000  0.0000000  0.0000000 )
                  (  0.0000000 -1.0000000  0.0000000 )
                  (  0.0000000  0.0000000  1.0000000 )


      isym =  3     180 deg rotation - cart. axis [0,1,0]        

 cryst.   s( 3) = (    -1          0          0      )
                  (     0          1          0      )
                  (     0          0         -1      )

 cart.    s( 3) = ( -1.0000000  0.0000000  0.0000000 )
                  (  0.0000000  1.0000000  0.0000000 )
                  (  0.0000000  0.0000000 -1.0000000 )


      isym =  4     180 deg rotation - cart. axis [1,0,0]        

 cryst.   s( 4) = (     1          0          0      )
                  (     0         -1          0      )
                  (     0          0         -1      )

 cart.    s( 4) = (  1.0000000  0.0000000  0.0000000 )
                  (  0.0000000 -1.0000000  0.0000000 )
                  (  0.0000000  0.0000000 -1.0000000 )


      isym =  5     180 deg rotation - cart. axis [1,1,0]        

 cryst.   s( 5) = (     0          1          0      )
                  (     1          0          0      )
                  (     0          0         -1      )

 cart.    s( 5) = (  0.0000000  1.0000000  0.0000000 )
                  (  1.0000000  0.0000000  0.0000000 )
                  (  0.0000000  0.0000000 -1.0000000 )


      isym =  6     180 deg rotation - cart. axis [1,-1,0]       

 cryst.   s( 6) = (     0         -1          0      )
                  (    -1          0          0      )
                  (     0          0         -1      )

 cart.    s( 6) = (  0.0000000 -1.0000000  0.0000000 )
                  ( -1.0000000  0.0000000  0.0000000 )
                  (  0.0000000  0.0000000 -1.0000000 )


      isym =  7      90 deg rotation - cart. axis [0,0,-1]       

 cryst.   s( 7) = (     0         -1          0      )
                  (     1          0          0      )
                  (     0          0          1      )

 cart.    s( 7) = (  0.0000000  1.0000000  0.0000000 )
                  ( -1.0000000  0.0000000  0.0000000 )
                  (  0.0000000  0.0000000  1.0000000 )


      isym =  8      90 deg rotation - cart. axis [0,0,1]        

 cryst.   s( 8) = (     0          1          0      )
                  (    -1          0          0      )
                  (     0          0          1      )

 cart.    s( 8) = (  0.0000000 -1.0000000  0.0000000 )
                  (  1.0000000  0.0000000  0.0000000 )
                  (  0.0000000  0.0000000  1.0000000 )


      isym =  9     180 deg rotation - cart. axis [1,0,1]        

 cryst.   s( 9) = (     0          0          1      )
                  (     0         -1          0      )
                  (     1          0          0      )

 cart.    s( 9) = (  0.0000000  0.0000000  1.0000000 )
                  (  0.0000000 -1.0000000  0.0000000 )
                  (  1.0000000  0.0000000  0.0000000 )


      isym = 10     180 deg rotation - cart. axis [-1,0,1]       

 cryst.   s(10) = (     0          0         -1      )
                  (     0         -1          0      )
                  (    -1          0          0      )

 cart.    s(10) = (  0.0000000  0.0000000 -1.0000000 )
                  (  0.0000000 -1.0000000  0.0000000 )
                  ( -1.0000000  0.0000000  0.0000000 )


      isym = 11      90 deg rotation - cart. axis [0,1,0]        

 cryst.   s(11) = (     0          0         -1      )
                  (     0          1          0      )
                  (     1          0          0      )

 cart.    s(11) = (  0.0000000  0.0000000  1.0000000 )
                  (  0.0000000  1.0000000  0.0000000 )
                  ( -1.0000000  0.0000000  0.0000000 )


      isym = 12      90 deg rotation - cart. axis [0,-1,0]       

 cryst.   s(12) = (     0          0          1      )
                  (     0          1          0      )
                  (    -1          0          0      )

 cart.    s(12) = (  0.0000000  0.0000000 -1.0000000 )
                  (  0.0000000  1.0000000  0.0000000 )
                  (  1.0000000  0.0000000  0.0000000 )


      isym = 13     180 deg rotation - cart. axis [0,1,1]        

 cryst.   s(13) = (    -1          0          0      )
                  (     0          0          1      )
                  (     0          1          0      )

 cart.    s(13) = ( -1.0000000  0.0000000  0.0000000 )
                  (  0.0000000  0.0000000  1.0000000 )
                  (  0.0000000  1.0000000  0.0000000 )


      isym = 14     180 deg rotation - cart. axis [0,1,-1]       

 cryst.   s(14) = (    -1          0          0      )
                  (     0          0         -1      )
                  (     0         -1          0      )

 cart.    s(14) = ( -1.0000000  0.0000000  0.0000000 )
                  (  0.0000000  0.0000000 -1.0000000 )
                  (  0.0000000 -1.0000000  0.0000000 )


      isym = 15      90 deg rotation - cart. axis [-1,0,0]       

 cryst.   s(15) = (     1          0          0      )
                  (     0          0         -1      )
                  (     0          1          0      )

 cart.    s(15) = (  1.0000000  0.0000000  0.0000000 )
                  (  0.0000000  0.0000000  1.0000000 )
                  (  0.0000000 -1.0000000  0.0000000 )


      isym = 16      90 deg rotation - cart. axis [1,0,0]        

 cryst.   s(16) = (     1          0          0      )
                  (     0          0          1      )
                  (     0         -1          0      )

 cart.    s(16) = (  1.0000000  0.0000000  0.0000000 )
                  (  0.0000000  0.0000000 -1.0000000 )
                  (  0.0000000  1.0000000  0.0000000 )


      isym = 17     120 deg rotation - cart. axis [-1,-1,-1]     

 cryst.   s(17) = (     0          0          1      )
                  (     1          0          0      )
                  (     0          1          0      )

 cart.    s(17) = (  0.0000000  1.0000000  0.0000000 )
                  (  0.0000000  0.0000000  1.0000000 )
                  (  1.0000000  0.0000000  0.0000000 )


      isym = 18     120 deg rotation - cart. axis [-1,1,1]       

 cryst.   s(18) = (     0          0         -1      )
                  (    -1          0          0      )
                  (     0          1          0      )

 cart.    s(18) = (  0.0000000 -1.0000000  0.0000000 )
                  (  0.0000000  0.0000000  1.0000000 )
                  ( -1.0000000  0.0000000  0.0000000 )


      isym = 19     120 deg rotation - cart. axis [1,1,-1]       

 cryst.   s(19) = (     0          0         -1      )
                  (     1          0          0      )
                  (     0         -1          0      )

 cart.    s(19) = (  0.0000000  1.0000000  0.0000000 )
                  (  0.0000000  0.0000000 -1.0000000 )
                  ( -1.0000000  0.0000000  0.0000000 )


      isym = 20     120 deg rotation - cart. axis [1,-1,1]       

 cryst.   s(20) = (     0          0          1      )
                  (    -1          0          0      )
                  (     0         -1          0      )

 cart.    s(20) = (  0.0000000 -1.0000000  0.0000000 )
                  (  0.0000000  0.0000000 -1.0000000 )
                  (  1.0000000  0.0000000  0.0000000 )


      isym = 21     120 deg rotation - cart. axis [1,1,1]        

 cryst.   s(21) = (     0          1          0      )
                  (     0          0          1      )
                  (     1          0          0      )

 cart.    s(21) = (  0.0000000  0.0000000  1.0000000 )
                  (  1.0000000  0.0000000  0.0000000 )
                  (  0.0000000  1.0000000  0.0000000 )


      isym = 22     120 deg rotation - cart. axis [-1,1,-1]      

 cryst.   s(22) = (     0         -1          0      )
                  (     0          0         -1      )
                  (     1          0          0      )

 cart.    s(22) = (  0.0000000  0.0000000  1.0000000 )
                  ( -1.0000000  0.0000000  0.0000000 )
                  (  0.0000000 -1.0000000  0.0000000 )


      isym = 23     120 deg rotation - cart. axis [1,-1,-1]      

 cryst.   s(23) = (     0         -1          0      )
                  (     0          0          1      )
                  (    -1          0          0      )

 cart.    s(23) = (  0.0000000  0.0000000 -1.0000000 )
                  ( -1.0000000  0.0000000  0.0000000 )
                  (  0.0000000  1.0000000  0.0000000 )


      isym = 24     120 deg rotation - cart. axis [-1,-1,1]      

 cryst.   s(24) = (     0          1          0      )
                  (     0          0         -1      )
                  (    -1          0          0      )

 cart.    s(24) = (  0.0000000  0.0000000 -1.0000000 )
                  (  1.0000000  0.0000000  0.0000000 )
                  (  0.0000000 -1.0000000  0.0000000 )


      isym = 25     inversion                                    

 cryst.   s(25) = (    -1          0          0      )
                  (     0         -1          0      )
                  (     0          0         -1      )

 cart.    s(25) = ( -1.0000000  0.0000000  0.0000000 )
                  (  0.0000000 -1.0000000  0.0000000 )
                  (  0.0000000  0.0000000 -1.0000000 )


      isym = 26     inv. 180 deg rotation - cart. axis [0,0,1]   

 cryst.   s(26) = (     1          0          0      )
                  (     0          1          0      )
                  (     0          0         -1      )

 cart.    s(26) = (  1.0000000  0.0000000  0.0000000 )
                  (  0.0000000  1.0000000  0.0000000 )
                  (  0.0000000  0.0000000 -1.0000000 )


      isym = 27     inv. 180 deg rotation - cart. axis [0,1,0]   

 cryst.   s(27) = (     1          0          0      )
                  (     0         -1          0      )
                  (     0          0          1      )

 cart.    s(27) = (  1.0000000  0.0000000  0.0000000 )
                  (  0.0000000 -1.0000000  0.0000000 )
                  (  0.0000000  0.0000000  1.0000000 )


      isym = 28     inv. 180 deg rotation - cart. axis [1,0,0]   

 cryst.   s(28) = (    -1          0          0      )
                  (     0          1          0      )
                  (     0          0          1      )

 cart.    s(28) = ( -1.0000000  0.0000000  0.0000000 )
                  (  0.0000000  1.0000000  0.0000000 )
                  (  0.0000000  0.0000000  1.0000000 )


      isym = 29     inv. 180 deg rotation - cart. axis [1,1,0]   

 cryst.   s(29) = (     0         -1          0      )
                  (    -1          0          0      )
                  (     0          0          1      )

 cart.    s(29) = (  0.0000000 -1.0000000  0.0000000 )
                  ( -1.0000000  0.0000000  0.0000000 )
                  (  0.0000000  0.0000000  1.0000000 )


      isym = 30     inv. 180 deg rotation - cart. axis [1,-1,0]  

 cryst.   s(30) = (     0          1          0      )
                  (     1          0          0      )
                  (     0          0          1      )

 cart.    s(30) = (  0.0000000  1.0000000  0.0000000 )
                  (  1.0000000  0.0000000  0.0000000 )
                  (  0.0000000  0.0000000  1.0000000 )


      isym = 31     inv.  90 deg rotation - cart. axis [0,0,-1]  

 cryst.   s(31) = (     0          1          0      )
                  (    -1          0          0      )
                  (     0          0         -1      )

 cart.    s(31) = (  0.0000000 -1.0000000  0.0000000 )
                  (  1.0000000  0.0000000  0.0000000 )
                  (  0.0000000  0.0000000 -1.0000000 )


      isym = 32     inv.  90 deg rotation - cart. axis [0,0,1]   

 cryst.   s(32) = (     0         -1          0      )
                  (     1          0          0      )
                  (     0          0         -1      )

 cart.    s(32) = (  0.0000000  1.0000000  0.0000000 )
                  ( -1.0000000  0.0000000  0.0000000 )
                  (  0.0000000  0.0000000 -1.0000000 )


      isym = 33     inv. 180 deg rotation - cart. axis [1,0,1]   

 cryst.   s(33) = (     0          0         -1      )
                  (     0          1          0      )
                  (    -1          0          0      )

 cart.    s(33) = (  0.0000000  0.0000000 -1.0000000 )
                  (  0.0000000  1.0000000  0.0000000 )
                  ( -1.0000000  0.0000000  0.0000000 )


      isym = 34     inv. 180 deg rotation - cart. axis [-1,0,1]  

 cryst.   s(34) = (     0          0          1      )
                  (     0          1          0      )
                  (     1          0          0      )

 cart.    s(34) = (  0.0000000  0.0000000  1.0000000 )
                  (  0.0000000  1.0000000  0.0000000 )
                  (  1.0000000  0.0000000  0.0000000 )


      isym = 35     inv.  90 deg rotation - cart. axis [0,1,0]   

 cryst.   s(35) = (     0          0          1      )
                  (     0         -1          0      )
                  (    -1          0          0      )

 cart.    s(35) = (  0.0000000  0.0000000 -1.0000000 )
                  (  0.0000000 -1.0000000  0.0000000 )
                  (  1.0000000  0.0000000  0.0000000 )


      isym = 36     inv.  90 deg rotation - cart. axis [0,-1,0]  

 cryst.   s(36) = (     0          0         -1      )
                  (     0         -1          0      )
                  (     1          0          0      )

 cart.    s(36) = (  0.0000000  0.0000000  1.0000000 )
                  (  0.0000000 -1.0000000  0.0000000 )
                  ( -1.0000000  0.0000000  0.0000000 )


      isym = 37     inv. 180 deg rotation - cart. axis [0,1,1]   

 cryst.   s(37) = (     1          0          0      )
                  (     0          0         -1      )
                  (     0         -1          0      )

 cart.    s(37) = (  1.0000000  0.0000000  0.0000000 )
                  (  0.0000000  0.0000000 -1.0000000 )
                  (  0.0000000 -1.0000000  0.0000000 )


      isym = 38     inv. 180 deg rotation - cart. axis [0,1,-1]  

 cryst.   s(38) = (     1          0          0      )
                  (     0          0          1      )
                  (     0          1          0      )

 cart.    s(38) = (  1.0000000  0.0000000  0.0000000 )
                  (  0.0000000  0.0000000  1.0000000 )
                  (  0.0000000  1.0000000  0.0000000 )


      isym = 39     inv.  90 deg rotation - cart. axis [-1,0,0]  

 cryst.   s(39) = (    -1          0          0      )
                  (     0          0          1      )
                  (     0         -1          0      )

 cart.    s(39) = ( -1.0000000  0.0000000  0.0000000 )
                  (  0.0000000  0.0000000 -1.0000000 )
                  (  0.0000000  1.0000000  0.0000000 )


      isym = 40     inv.  90 deg rotation - cart. axis [1,0,0]   

 cryst.   s(40) = (    -1          0          0      )
                  (     0          0         -1      )
                  (     0          1          0      )

 cart.    s(40) = ( -1.0000000  0.0000000  0.0000000 )
                  (  0.0000000  0.0000000  1.0000000 )
                  (  0.0000000 -1.0000000  0.0000000 )


      isym = 41     inv. 120 deg rotation - cart. axis [-1,-1,-1]

 cryst.   s(41) = (     0          0         -1      )
                  (    -1          0          0      )
                  (     0         -1          0      )

 cart.    s(41) = (  0.0000000 -1.0000000  0.0000000 )
                  (  0.0000000  0.0000000 -1.0000000 )
                  ( -1.0000000  0.0000000  0.0000000 )


      isym = 42     inv. 120 deg rotation - cart. axis [-1,1,1]  

 cryst.   s(42) = (     0          0          1      )
                  (     1          0          0      )
                  (     0         -1          0      )

 cart.    s(42) = (  0.0000000  1.0000000  0.0000000 )
                  (  0.0000000  0.0000000 -1.0000000 )
                  (  1.0000000  0.0000000  0.0000000 )


      isym = 43     inv. 120 deg rotation - cart. axis [1,1,-1]  

 cryst.   s(43) = (     0          0          1      )
                  (    -1          0          0      )
                  (     0          1          0      )

 cart.    s(43) = (  0.0000000 -1.0000000  0.0000000 )
                  (  0.0000000  0.0000000  1.0000000 )
                  (  1.0000000  0.0000000  0.0000000 )


      isym = 44     inv. 120 deg rotation - cart. axis [1,-1,1]  

 cryst.   s(44) = (     0          0         -1      )
                  (     1          0          0      )
                  (     0          1          0      )

 cart.    s(44) = (  0.0000000  1.0000000  0.0000000 )
                  (  0.0000000  0.0000000  1.0000000 )
                  ( -1.0000000  0.0000000  0.0000000 )


      isym = 45     inv. 120 deg rotation - cart. axis [1,1,1]   

 cryst.   s(45) = (     0         -1          0      )
                  (     0          0         -1      )
                  (    -1          0          0      )

 cart.    s(45) = (  0.0000000  0.0000000 -1.0000000 )
                  ( -1.0000000  0.0000000  0.0000000 )
                  (  0.0000000 -1.0000000  0.0000000 )


      isym = 46     inv. 120 deg rotation - cart. axis [-1,1,-1] 

 cryst.   s(46) = (     0          1          0      )
                  (     0          0          1      )
                  (    -1          0          0      )

 cart.    s(46) = (  0.0000000  0.0000000 -1.0000000 )
                  (  1.0000000  0.0000000  0.0000000 )
                  (  0.0000000  1.0000000  0.0000000 )


      isym = 47     inv. 120 deg rotation - cart. axis [1,-1,-1] 

 cryst.   s(47) = (     0          1          0      )
                  (     0          0         -1      )
                  (     1          0          0      )

 cart.    s(47) = (  0.0000000  0.0000000  1.0000000 )
                  (  1.0000000  0.0000000  0.0000000 )
                  (  0.0000000 -1.0000000  0.0000000 )


      isym = 48     inv. 120 deg rotation - cart. axis [-1,-1,1] 

 cryst.   s(48) = (     0         -1          0      )
                  (     0          0          1      )
                  (     1          0          0      )

 cart.    s(48) = (  0.0000000  0.0000000  1.0000000 )
                  ( -1.0000000  0.0000000  0.0000000 )
                  (  0.0000000  1.0000000  0.0000000 )


     point group O_h (m-3m) 
     there are 10 classes
     the character table:

       E     8C3   3C2   6C4   6C2'  i     8S6   3s_h  6S4   6s_d 
A_1g   1.00  1.00  1.00  1.00  1.00  1.00  1.00  1.00  1.00  1.00
A_2g   1.00  1.00  1.00 -1.00 -1.00  1.00  1.00  1.00 -1.00 -1.00
E_g    2.00 -1.00  2.00  0.00  0.00  2.00 -1.00  2.00  0.00  0.00
T_1g   3.00  0.00 -1.00  1.00 -1.00  3.00  0.00 -1.00  1.00 -1.00
T_2g   3.00  0.00 -1.00 -1.00  1.00  3.00  0.00 -1.00 -1.00  1.00
A_1u   1.00  1.00  1.00  1.00  1.00 -1.00 -1.00 -1.00 -1.00 -1.00
A_2u   1.00  1.00  1.00 -1.00 -1.00 -1.00 -1.00 -1.00  1.00  1.00
E_u    2.00 -1.00  2.00  0.00  0.00 -2.00  1.00 -2.00  0.00  0.00
T_1u   3.00  0.00 -1.00  1.00 -1.00 -3.00  0.00  1.00 -1.00  1.00
T_2u   3.00  0.00 -1.00 -1.00  1.00 -3.00  0.00  1.00  1.00 -1.00

     the symmetry operations in each class and the name of the first element:

     E        1
          identity                                               
     8C3     17   19   20   18   24   21   22   23
          120 deg rotation - cart. axis [-1,-1,-1]               
     3C2      2    4    3
          180 deg rotation - cart. axis [0,0,1]                  
     6C4      7    8   15   16   12   11
           90 deg rotation - cart. axis [0,0,-1]                 
     6C2'     5    6   14   13   10    9
          180 deg rotation - cart. axis [1,1,0]                  
     i       25
          inversion                                              
     8S6     41   43   44   42   48   45   46   47
          inv. 120 deg rotation - cart. axis [-1,-1,-1]          
     3s_h    26   28   27
          inv. 180 deg rotation - cart. axis [0,0,1]             
     6S4     31   32   39   40   36   35
          inv.  90 deg rotation - cart. axis [0,0,-1]            
     6s_d    29   30   38   37   34   33
          inv. 180 deg rotation - cart. axis [1,1,0]             

   Cartesian axes

     site n.     atom                  positions (alat units)
         1           Fe  tau(   1) = (   0.0000000   0.0000000   0.0000000  )
         2           Ti  tau(   2) = (   0.5000000   0.5000000   0.5000000  )

   Crystallographic axes

     site n.     atom                  positions (cryst. coord.)
         1           Fe  tau(   1) = (  0.0000000  0.0000000  0.0000000  )
         2           Ti  tau(   2) = (  0.5000000  0.5000000  0.5000000  )

     number of k points=   120  Fermi-Dirac smearing, width (Ry)=  0.0100
                       cart. coord. in units 2pi/alat
        k(    1) = (   0.0312500   0.0312500   0.0312500), wk =   0.0039062
        k(    2) = (   0.0312500   0.0312500   0.0937500), wk =   0.0117188
        k(    3) = (   0.0312500   0.0312500   0.1562500), wk =   0.0117188
        k(    4) = (   0.0312500   0.0312500   0.2187500), wk =   0.0117188
        k(    5) = (   0.0312500   0.0312500   0.2812500), wk =   0.0117188
        k(    6) = (   0.0312500   0.0312500   0.3437500), wk =   0.0117188
        k(    7) = (   0.0312500   0.0312500   0.4062500), wk =   0.0117188
        k(    8) = (   0.0312500   0.0312500   0.4687500), wk =   0.0117188
        k(    9) = (   0.0312500   0.0937500   0.0937500), wk =   0.0117188
        k(   10) = (   0.0312500   0.0937500   0.1562500), wk =   0.0234375
        k(   11) = (   0.0312500   0.0937500   0.2187500), wk =   0.0234375
        k(   12) = (   0.0312500   0.0937500   0.2812500), wk =   0.0234375
        k(   13) = (   0.0312500   0.0937500   0.3437500), wk =   0.0234375
        k(   14) = (   0.0312500   0.0937500   0.4062500), wk =   0.0234375
        k(   15) = (   0.0312500   0.0937500   0.4687500), wk =   0.0234375
        k(   16) = (   0.0312500   0.1562500   0.1562500), wk =   0.0117188
        k(   17) = (   0.0312500   0.1562500   0.2187500), wk =   0.0234375
        k(   18) = (   0.0312500   0.1562500   0.2812500), wk =   0.0234375
        k(   19) = (   0.0312500   0.1562500   0.3437500), wk =   0.0234375
        k(   20) = (   0.0312500   0.1562500   0.4062500), wk =   0.0234375
        k(   21) = (   0.0312500   0.1562500   0.4687500), wk =   0.0234375
        k(   22) = (   0.0312500   0.2187500   0.2187500), wk =   0.0117188
        k(   23) = (   0.0312500   0.2187500   0.2812500), wk =   0.0234375
        k(   24) = (   0.0312500   0.2187500   0.3437500), wk =   0.0234375
        k(   25) = (   0.0312500   0.2187500   0.4062500), wk =   0.0234375
        k(   26) = (   0.0312500   0.2187500   0.4687500), wk =   0.0234375
        k(   27) = (   0.0312500   0.2812500   0.2812500), wk =   0.0117188
        k(   28) = (   0.0312500   0.2812500   0.3437500), wk =   0.0234375
        k(   29) = (   0.0312500   0.2812500   0.4062500), wk =   0.0234375
        k(   30) = (   0.0312500   0.2812500   0.4687500), wk =   0.0234375
        k(   31) = (   0.0312500   0.3437500   0.3437500), wk =   0.0117188
        k(   32) = (   0.0312500   0.3437500   0.4062500), wk =   0.0234375
        k(   33) = (   0.0312500   0.3437500   0.4687500), wk =   0.0234375
        k(   34) = (   0.0312500   0.4062500   0.4062500), wk =   0.0117188
        k(   35) = (   0.0312500   0.4062500   0.4687500), wk =   0.0234375
        k(   36) = (   0.0312500   0.4687500   0.4687500), wk =   0.0117188
        k(   37) = (   0.0937500   0.0937500   0.0937500), wk =   0.0039062
        k(   38) = (   0.0937500   0.0937500   0.1562500), wk =   0.0117188
        k(   39) = (   0.0937500   0.0937500   0.2187500), wk =   0.0117188
        k(   40) = (   0.0937500   0.0937500   0.2812500), wk =   0.0117188
        k(   41) = (   0.0937500   0.0937500   0.3437500), wk =   0.0117188
        k(   42) = (   0.0937500   0.0937500   0.4062500), wk =   0.0117188
        k(   43) = (   0.0937500   0.0937500   0.4687500), wk =   0.0117188
        k(   44) = (   0.0937500   0.1562500   0.1562500), wk =   0.0117188
        k(   45) = (   0.0937500   0.1562500   0.2187500), wk =   0.0234375
        k(   46) = (   0.0937500   0.1562500   0.2812500), wk =   0.0234375
        k(   47) = (   0.0937500   0.1562500   0.3437500), wk =   0.0234375
        k(   48) = (   0.0937500   0.1562500   0.4062500), wk =   0.0234375
        k(   49) = (   0.0937500   0.1562500   0.4687500), wk =   0.0234375
        k(   50) = (   0.0937500   0.2187500   0.2187500), wk =   0.0117188
        k(   51) = (   0.0937500   0.2187500   0.2812500), wk =   0.0234375
        k(   52) = (   0.0937500   0.2187500   0.3437500), wk =   0.0234375
        k(   53) = (   0.0937500   0.2187500   0.4062500), wk =   0.0234375
        k(   54) = (   0.0937500   0.2187500   0.4687500), wk =   0.0234375
        k(   55) = (   0.0937500   0.2812500   0.2812500), wk =   0.0117188
        k(   56) = (   0.0937500   0.2812500   0.3437500), wk =   0.0234375
        k(   57) = (   0.0937500   0.2812500   0.4062500), wk =   0.0234375
        k(   58) = (   0.0937500   0.2812500   0.4687500), wk =   0.0234375
        k(   59) = (   0.0937500   0.3437500   0.3437500), wk =   0.0117188
        k(   60) = (   0.0937500   0.3437500   0.4062500), wk =   0.0234375
        k(   61) = (   0.0937500   0.3437500   0.4687500), wk =   0.0234375
        k(   62) = (   0.0937500   0.4062500   0.4062500), wk =   0.0117188
        k(   63) = (   0.0937500   0.4062500   0.4687500), wk =   0.0234375
        k(   64) = (   0.0937500   0.4687500   0.4687500), wk =   0.0117188
        k(   65) = (   0.1562500   0.1562500   0.1562500), wk =   0.0039062
        k(   66) = (   0.1562500   0.1562500   0.2187500), wk =   0.0117188
        k(   67) = (   0.1562500   0.1562500   0.2812500), wk =   0.0117188
        k(   68) = (   0.1562500   0.1562500   0.3437500), wk =   0.0117188
        k(   69) = (   0.1562500   0.1562500   0.4062500), wk =   0.0117188
        k(   70) = (   0.1562500   0.1562500   0.4687500), wk =   0.0117188
        k(   71) = (   0.1562500   0.2187500   0.2187500), wk =   0.0117188
        k(   72) = (   0.1562500   0.2187500   0.2812500), wk =   0.0234375
        k(   73) = (   0.1562500   0.2187500   0.3437500), wk =   0.0234375
        k(   74) = (   0.1562500   0.2187500   0.4062500), wk =   0.0234375
        k(   75) = (   0.1562500   0.2187500   0.4687500), wk =   0.0234375
        k(   76) = (   0.1562500   0.2812500   0.2812500), wk =   0.0117188
        k(   77) = (   0.1562500   0.2812500   0.3437500), wk =   0.0234375
        k(   78) = (   0.1562500   0.2812500   0.4062500), wk =   0.0234375
        k(   79) = (   0.1562500   0.2812500   0.4687500), wk =   0.0234375
        k(   80) = (   0.1562500   0.3437500   0.3437500), wk =   0.0117188
        k(   81) = (   0.1562500   0.3437500   0.4062500), wk =   0.0234375
        k(   82) = (   0.1562500   0.3437500   0.4687500), wk =   0.0234375
        k(   83) = (   0.1562500   0.4062500   0.4062500), wk =   0.0117188
        k(   84) = (   0.1562500   0.4062500   0.4687500), wk =   0.0234375
        k(   85) = (   0.1562500   0.4687500   0.4687500), wk =   0.0117188
        k(   86) = (   0.2187500   0.2187500   0.2187500), wk =   0.0039062
        k(   87) = (   0.2187500   0.2187500   0.2812500), wk =   0.0117188
        k(   88) = (   0.2187500   0.2187500   0.3437500), wk =   0.0117188
        k(   89) = (   0.2187500   0.2187500   0.4062500), wk =   0.0117188
        k(   90) = (   0.2187500   0.2187500   0.4687500), wk =   0.0117188
        k(   91) = (   0.2187500   0.2812500   0.2812500), wk =   0.0117188
        k(   92) = (   0.2187500   0.2812500   0.3437500), wk =   0.0234375
        k(   93) = (   0.2187500   0.2812500   0.4062500), wk =   0.0234375
        k(   94) = (   0.2187500   0.2812500   0.4687500), wk =   0.0234375
        k(   95) = (   0.2187500   0.3437500   0.3437500), wk =   0.0117188
        k(   96) = (   0.2187500   0.3437500   0.4062500), wk =   0.0234375
        k(   97) = (   0.2187500   0.3437500   0.4687500), wk =   0.0234375
        k(   98) = (   0.2187500   0.4062500   0.4062500), wk =   0.0117188
        k(   99) = (   0.2187500   0.4062500   0.4687500), wk =   0.0234375
        k(  100) = (   0.2187500   0.4687500   0.4687500), wk =   0.0117188
        k(  101) = (   0.2812500   0.2812500   0.2812500), wk =   0.0039062
        k(  102) = (   0.2812500   0.2812500   0.3437500), wk =   0.0117188
        k(  103) = (   0.2812500   0.2812500   0.4062500), wk =   0.0117188
        k(  104) = (   0.2812500   0.2812500   0.4687500), wk =   0.0117188
        k(  105) = (   0.2812500   0.3437500   0.3437500), wk =   0.0117188
        k(  106) = (   0.2812500   0.3437500   0.4062500), wk =   0.0234375
        k(  107) = (   0.2812500   0.3437500   0.4687500), wk =   0.0234375
        k(  108) = (   0.2812500   0.4062500   0.4062500), wk =   0.0117188
        k(  109) = (   0.2812500   0.4062500   0.4687500), wk =   0.0234375
        k(  110) = (   0.2812500   0.4687500   0.4687500), wk =   0.0117188
        k(  111) = (   0.3437500   0.3437500   0.3437500), wk =   0.0039062
        k(  112) = (   0.3437500   0.3437500   0.4062500), wk =   0.0117188
        k(  113) = (   0.3437500   0.3437500   0.4687500), wk =   0.0117188
        k(  114) = (   0.3437500   0.4062500   0.4062500), wk =   0.0117188
        k(  115) = (   0.3437500   0.4062500   0.4687500), wk =   0.0234375
        k(  116) = (   0.3437500   0.4687500   0.4687500), wk =   0.0117188
        k(  117) = (   0.4062500   0.4062500   0.4062500), wk =   0.0039062
        k(  118) = (   0.4062500   0.4062500   0.4687500), wk =   0.0117188
        k(  119) = (   0.4062500   0.4687500   0.4687500), wk =   0.0117188
        k(  120) = (   0.4687500   0.4687500   0.4687500), wk =   0.0039062

                       cryst. coord.
        k(    1) = (   0.0312500   0.0312500   0.0312500), wk =   0.0039062
        k(    2) = (   0.0312500   0.0312500   0.0937500), wk =   0.0117188
        k(    3) = (   0.0312500   0.0312500   0.1562500), wk =   0.0117188
        k(    4) = (   0.0312500   0.0312500   0.2187500), wk =   0.0117188
        k(    5) = (   0.0312500   0.0312500   0.2812500), wk =   0.0117188
        k(    6) = (   0.0312500   0.0312500   0.3437500), wk =   0.0117188
        k(    7) = (   0.0312500   0.0312500   0.4062500), wk =   0.0117188
        k(    8) = (   0.0312500   0.0312500   0.4687500), wk =   0.0117188
        k(    9) = (   0.0312500   0.0937500   0.0937500), wk =   0.0117188
        k(   10) = (   0.0312500   0.0937500   0.1562500), wk =   0.0234375
        k(   11) = (   0.0312500   0.0937500   0.2187500), wk =   0.0234375
        k(   12) = (   0.0312500   0.0937500   0.2812500), wk =   0.0234375
        k(   13) = (   0.0312500   0.0937500   0.3437500), wk =   0.0234375
        k(   14) = (   0.0312500   0.0937500   0.4062500), wk =   0.0234375
        k(   15) = (   0.0312500   0.0937500   0.4687500), wk =   0.0234375
        k(   16) = (   0.0312500   0.1562500   0.1562500), wk =   0.0117188
        k(   17) = (   0.0312500   0.1562500   0.2187500), wk =   0.0234375
        k(   18) = (   0.0312500   0.1562500   0.2812500), wk =   0.0234375
        k(   19) = (   0.0312500   0.1562500   0.3437500), wk =   0.0234375
        k(   20) = (   0.0312500   0.1562500   0.4062500), wk =   0.0234375
        k(   21) = (   0.0312500   0.1562500   0.4687500), wk =   0.0234375
        k(   22) = (   0.0312500   0.2187500   0.2187500), wk =   0.0117188
        k(   23) = (   0.0312500   0.2187500   0.2812500), wk =   0.0234375
        k(   24) = (   0.0312500   0.2187500   0.3437500), wk =   0.0234375
        k(   25) = (   0.0312500   0.2187500   0.4062500), wk =   0.0234375
        k(   26) = (   0.0312500   0.2187500   0.4687500), wk =   0.0234375
        k(   27) = (   0.0312500   0.2812500   0.2812500), wk =   0.0117188
        k(   28) = (   0.0312500   0.2812500   0.3437500), wk =   0.0234375
        k(   29) = (   0.0312500   0.2812500   0.4062500), wk =   0.0234375
        k(   30) = (   0.0312500   0.2812500   0.4687500), wk =   0.0234375
        k(   31) = (   0.0312500   0.3437500   0.3437500), wk =   0.0117188
        k(   32) = (   0.0312500   0.3437500   0.4062500), wk =   0.0234375
        k(   33) = (   0.0312500   0.3437500   0.4687500), wk =   0.0234375
        k(   34) = (   0.0312500   0.4062500   0.4062500), wk =   0.0117188
        k(   35) = (   0.0312500   0.4062500   0.4687500), wk =   0.0234375
        k(   36) = (   0.0312500   0.4687500   0.4687500), wk =   0.0117188
        k(   37) = (   0.0937500   0.0937500   0.0937500), wk =   0.0039062
        k(   38) = (   0.0937500   0.0937500   0.1562500), wk =   0.0117188
        k(   39) = (   0.0937500   0.0937500   0.2187500), wk =   0.0117188
        k(   40) = (   0.0937500   0.0937500   0.2812500), wk =   0.0117188
        k(   41) = (   0.0937500   0.0937500   0.3437500), wk =   0.0117188
        k(   42) = (   0.0937500   0.0937500   0.4062500), wk =   0.0117188
        k(   43) = (   0.0937500   0.0937500   0.4687500), wk =   0.0117188
        k(   44) = (   0.0937500   0.1562500   0.1562500), wk =   0.0117188
        k(   45) = (   0.0937500   0.1562500   0.2187500), wk =   0.0234375
        k(   46) = (   0.0937500   0.1562500   0.2812500), wk =   0.0234375
        k(   47) = (   0.0937500   0.1562500   0.3437500), wk =   0.0234375
        k(   48) = (   0.0937500   0.1562500   0.4062500), wk =   0.0234375
        k(   49) = (   0.0937500   0.1562500   0.4687500), wk =   0.0234375
        k(   50) = (   0.0937500   0.2187500   0.2187500), wk =   0.0117188
        k(   51) = (   0.0937500   0.2187500   0.2812500), wk =   0.0234375
        k(   52) = (   0.0937500   0.2187500   0.3437500), wk =   0.0234375
        k(   53) = (   0.0937500   0.2187500   0.4062500), wk =   0.0234375
        k(   54) = (   0.0937500   0.2187500   0.4687500), wk =   0.0234375
        k(   55) = (   0.0937500   0.2812500   0.2812500), wk =   0.0117188
        k(   56) = (   0.0937500   0.2812500   0.3437500), wk =   0.0234375
        k(   57) = (   0.0937500   0.2812500   0.4062500), wk =   0.0234375
        k(   58) = (   0.0937500   0.2812500   0.4687500), wk =   0.0234375
        k(   59) = (   0.0937500   0.3437500   0.3437500), wk =   0.0117188
        k(   60) = (   0.0937500   0.3437500   0.4062500), wk =   0.0234375
        k(   61) = (   0.0937500   0.3437500   0.4687500), wk =   0.0234375
        k(   62) = (   0.0937500   0.4062500   0.4062500), wk =   0.0117188
        k(   63) = (   0.0937500   0.4062500   0.4687500), wk =   0.0234375
        k(   64) = (   0.0937500   0.4687500   0.4687500), wk =   0.0117188
        k(   65) = (   0.1562500   0.1562500   0.1562500), wk =   0.0039062
        k(   66) = (   0.1562500   0.1562500   0.2187500), wk =   0.0117188
        k(   67) = (   0.1562500   0.1562500   0.2812500), wk =   0.0117188
        k(   68) = (   0.1562500   0.1562500   0.3437500), wk =   0.0117188
        k(   69) = (   0.1562500   0.1562500   0.4062500), wk =   0.0117188
        k(   70) = (   0.1562500   0.1562500   0.4687500), wk =   0.0117188
        k(   71) = (   0.1562500   0.2187500   0.2187500), wk =   0.0117188
        k(   72) = (   0.1562500   0.2187500   0.2812500), wk =   0.0234375
        k(   73) = (   0.1562500   0.2187500   0.3437500), wk =   0.0234375
        k(   74) = (   0.1562500   0.2187500   0.4062500), wk =   0.0234375
        k(   75) = (   0.1562500   0.2187500   0.4687500), wk =   0.0234375
        k(   76) = (   0.1562500   0.2812500   0.2812500), wk =   0.0117188
        k(   77) = (   0.1562500   0.2812500   0.3437500), wk =   0.0234375
        k(   78) = (   0.1562500   0.2812500   0.4062500), wk =   0.0234375
        k(   79) = (   0.1562500   0.2812500   0.4687500), wk =   0.0234375
        k(   80) = (   0.1562500   0.3437500   0.3437500), wk =   0.0117188
        k(   81) = (   0.1562500   0.3437500   0.4062500), wk =   0.0234375
        k(   82) = (   0.1562500   0.3437500   0.4687500), wk =   0.0234375
        k(   83) = (   0.1562500   0.4062500   0.4062500), wk =   0.0117188
        k(   84) = (   0.1562500   0.4062500   0.4687500), wk =   0.0234375
        k(   85) = (   0.1562500   0.4687500   0.4687500), wk =   0.0117188
        k(   86) = (   0.2187500   0.2187500   0.2187500), wk =   0.0039062
        k(   87) = (   0.2187500   0.2187500   0.2812500), wk =   0.0117188
        k(   88) = (   0.2187500   0.2187500   0.3437500), wk =   0.0117188
        k(   89) = (   0.2187500   0.2187500   0.4062500), wk =   0.0117188
        k(   90) = (   0.2187500   0.2187500   0.4687500), wk =   0.0117188
        k(   91) = (   0.2187500   0.2812500   0.2812500), wk =   0.0117188
        k(   92) = (   0.2187500   0.2812500   0.3437500), wk =   0.0234375
        k(   93) = (   0.2187500   0.2812500   0.4062500), wk =   0.0234375
        k(   94) = (   0.2187500   0.2812500   0.4687500), wk =   0.0234375
        k(   95) = (   0.2187500   0.3437500   0.3437500), wk =   0.0117188
        k(   96) = (   0.2187500   0.3437500   0.4062500), wk =   0.0234375
        k(   97) = (   0.2187500   0.3437500   0.4687500), wk =   0.0234375
        k(   98) = (   0.2187500   0.4062500   0.4062500), wk =   0.0117188
        k(   99) = (   0.2187500   0.4062500   0.4687500), wk =   0.0234375
        k(  100) = (   0.2187500   0.4687500   0.4687500), wk =   0.0117188
        k(  101) = (   0.2812500   0.2812500   0.2812500), wk =   0.0039062
        k(  102) = (   0.2812500   0.2812500   0.3437500), wk =   0.0117188
        k(  103) = (   0.2812500   0.2812500   0.4062500), wk =   0.0117188
        k(  104) = (   0.2812500   0.2812500   0.4687500), wk =   0.0117188
        k(  105) = (   0.2812500   0.3437500   0.3437500), wk =   0.0117188
        k(  106) = (   0.2812500   0.3437500   0.4062500), wk =   0.0234375
        k(  107) = (   0.2812500   0.3437500   0.4687500), wk =   0.0234375
        k(  108) = (   0.2812500   0.4062500   0.4062500), wk =   0.0117188
        k(  109) = (   0.2812500   0.4062500   0.4687500), wk =   0.0234375
        k(  110) = (   0.2812500   0.4687500   0.4687500), wk =   0.0117188
        k(  111) = (   0.3437500   0.3437500   0.3437500), wk =   0.0039062
        k(  112) = (   0.3437500   0.3437500   0.4062500), wk =   0.0117188
        k(  113) = (   0.3437500   0.3437500   0.4687500), wk =   0.0117188
        k(  114) = (   0.3437500   0.4062500   0.4062500), wk =   0.0117188
        k(  115) = (   0.3437500   0.4062500   0.4687500), wk =   0.0234375
        k(  116) = (   0.3437500   0.4687500   0.4687500), wk =   0.0117188
        k(  117) = (   0.4062500   0.4062500   0.4062500), wk =   0.0039062
        k(  118) = (   0.4062500   0.4062500   0.4687500), wk =   0.0117188
        k(  119) = (   0.4062500   0.4687500   0.4687500), wk =   0.0117188
        k(  120) = (   0.4687500   0.4687500   0.4687500), wk =   0.0039062

     Dense  grid:    23703 G-vectors     FFT dimensions: (  36,  36,  36)

     Smooth grid:     8385 G-vectors     FFT dimensions: (  25,  25,  25)

     Dynamical RAM for                 wfc:       0.22 MB

     Dynamical RAM for     wfc (w. buffer):       0.22 MB

     Dynamical RAM for           str. fact:       0.72 MB

     Dynamical RAM for           local pot:       0.00 MB

     Dynamical RAM for          nlocal pot:       0.58 MB

     Dynamical RAM for                qrad:       2.86 MB

     Dynamical RAM for          rho,v,vnew:       2.15 MB

     Dynamical RAM for           G-vectors:       1.42 MB

     Dynamical RAM for          h,s,v(r/c):       0.01 MB

     Dynamical RAM for          <psi|beta>:       0.01 MB

     Dynamical RAM for      wfcinit/wfcrot:       0.52 MB

     Dynamical RAM for           addusdens:      67.63 MB

     Estimated static dynamical RAM per process >      10.82 MB

     Estimated max dynamical RAM per process >      78.46 MB

     Check: negative/imaginary core charge=   -0.000012    0.000000

     The potential is recalculated from file :
     ./pwscf.save/charge-density.dat

     Starting wfcs are   16 randomized atomic wfcs

     Band Structure Calculation
     CG style diagonalization

     Computing kpt #:     1
     total cpu time spent up to now is        1.9 secs

     Computing kpt #:     2
     total cpu time spent up to now is        2.4 secs

     Computing kpt #:     3
     total cpu time spent up to now is        2.8 secs

     Computing kpt #:     4
     total cpu time spent up to now is        3.3 secs

     Computing kpt #:     5
     total cpu time spent up to now is        3.7 secs

     Computing kpt #:     6
     total cpu time spent up to now is        4.1 secs

     Computing kpt #:     7
     total cpu time spent up to now is        4.5 secs

     Computing kpt #:     8
     total cpu time spent up to now is        4.9 secs

     Computing kpt #:     9
     total cpu time spent up to now is        5.4 secs

     Computing kpt #:    10
     total cpu time spent up to now is        5.8 secs

     Computing kpt #:    11
     total cpu time spent up to now is        6.2 secs

     Computing kpt #:    12
     total cpu time spent up to now is        6.7 secs

     Computing kpt #:    13
     total cpu time spent up to now is        7.1 secs

     Computing kpt #:    14
     total cpu time spent up to now is        7.6 secs

     Computing kpt #:    15
     total cpu time spent up to now is        8.0 secs

     Computing kpt #:    16
     total cpu time spent up to now is        8.4 secs

     Computing kpt #:    17
     total cpu time spent up to now is        8.9 secs

     Computing kpt #:    18
     total cpu time spent up to now is        9.3 secs

     Computing kpt #:    19
     total cpu time spent up to now is        9.8 secs

     Computing kpt #:    20
     total cpu time spent up to now is       10.3 secs

     Computing kpt #:    21
     total cpu time spent up to now is       10.8 secs

     Computing kpt #:    22
     total cpu time spent up to now is       11.2 secs

     Computing kpt #:    23
     total cpu time spent up to now is       11.7 secs

     Computing kpt #:    24
     total cpu time spent up to now is       12.2 secs

     Computing kpt #:    25
     total cpu time spent up to now is       12.7 secs

     Computing kpt #:    26
     total cpu time spent up to now is       13.2 secs

     Computing kpt #:    27
     total cpu time spent up to now is       13.7 secs

     Computing kpt #:    28
     total cpu time spent up to now is       14.2 secs

     Computing kpt #:    29
     total cpu time spent up to now is       14.8 secs

     Computing kpt #:    30
     total cpu time spent up to now is       15.3 secs

     Computing kpt #:    31
     total cpu time spent up to now is       15.8 secs

     Computing kpt #:    32
     total cpu time spent up to now is       16.4 secs

     Computing kpt #:    33
     c_bands:  1 eigenvalues not converged
     total cpu time spent up to now is       17.1 secs

     Computing kpt #:    34
     total cpu time spent up to now is       17.8 secs

     Computing kpt #:    35
     total cpu time spent up to now is       18.5 secs

     Computing kpt #:    36
     total cpu time spent up to now is       19.2 secs

     Computing kpt #:    37
     total cpu time spent up to now is       19.6 secs

     Computing kpt #:    38
     total cpu time spent up to now is       20.0 secs

     Computing kpt #:    39
     total cpu time spent up to now is       20.5 secs

     Computing kpt #:    40
     total cpu time spent up to now is       20.9 secs

     Computing kpt #:    41
     total cpu time spent up to now is       21.3 secs

     Computing kpt #:    42
     total cpu time spent up to now is       21.8 secs

     Computing kpt #:    43
     total cpu time spent up to now is       22.3 secs

     Computing kpt #:    44
     total cpu time spent up to now is       22.7 secs

     Computing kpt #:    45
     total cpu time spent up to now is       23.2 secs

     Computing kpt #:    46
     total cpu time spent up to now is       23.7 secs

     Computing kpt #:    47
     total cpu time spent up to now is       24.2 secs

     Computing kpt #:    48
     total cpu time spent up to now is       24.7 secs

     Computing kpt #:    49
     total cpu time spent up to now is       25.2 secs

     Computing kpt #:    50
     total cpu time spent up to now is       25.6 secs

     Computing kpt #:    51
     total cpu time spent up to now is       26.1 secs

     Computing kpt #:    52
     total cpu time spent up to now is       26.7 secs

     Computing kpt #:    53
     total cpu time spent up to now is       27.3 secs

     Computing kpt #:    54
     c_bands:  1 eigenvalues not converged
     total cpu time spent up to now is       28.0 secs

     Computing kpt #:    55
     total cpu time spent up to now is       28.4 secs

     Computing kpt #:    56
     total cpu time spent up to now is       29.0 secs

     Computing kpt #:    57
     total cpu time spent up to now is       29.6 secs

     Computing kpt #:    58
     total cpu time spent up to now is       30.2 secs

     Computing kpt #:    59
     total cpu time spent up to now is       30.7 secs

     Computing kpt #:    60
     c_bands:  1 eigenvalues not converged
     total cpu time spent up to now is       31.4 secs

     Computing kpt #:    61
     total cpu time spent up to now is       31.9 secs

     Computing kpt #:    62
     total cpu time spent up to now is       32.4 secs

     Computing kpt #:    63
     total cpu time spent up to now is       32.9 secs

     Computing kpt #:    64
     total cpu time spent up to now is       33.5 secs

     Computing kpt #:    65
     total cpu time spent up to now is       33.9 secs

     Computing kpt #:    66
     total cpu time spent up to now is       34.4 secs

     Computing kpt #:    67
     total cpu time spent up to now is       34.9 secs

     Computing kpt #:    68
     total cpu time spent up to now is       35.4 secs

     Computing kpt #:    69
     total cpu time spent up to now is       36.0 secs

     Computing kpt #:    70
     total cpu time spent up to now is       36.6 secs

     Computing kpt #:    71
     total cpu time spent up to now is       37.0 secs

     Computing kpt #:    72
     total cpu time spent up to now is       37.5 secs

     Computing kpt #:    73
     total cpu time spent up to now is       38.2 secs

     Computing kpt #:    74
     c_bands:  1 eigenvalues not converged
     total cpu time spent up to now is       38.8 secs

     Computing kpt #:    75
     total cpu time spent up to now is       39.3 secs

     Computing kpt #:    76
     total cpu time spent up to now is       39.9 secs

     Computing kpt #:    77
     total cpu time spent up to now is       40.6 secs

     Computing kpt #:    78
     total cpu time spent up to now is       41.1 secs

     Computing kpt #:    79
     total cpu time spent up to now is       41.6 secs

     Computing kpt #:    80
     total cpu time spent up to now is       42.0 secs

     Computing kpt #:    81
     total cpu time spent up to now is       42.6 secs

     Computing kpt #:    82
     total cpu time spent up to now is       43.0 secs

     Computing kpt #:    83
     total cpu time spent up to now is       43.6 secs

     Computing kpt #:    84
     total cpu time spent up to now is       44.1 secs

     Computing kpt #:    85
     total cpu time spent up to now is       44.6 secs

     Computing kpt #:    86
     total cpu time spent up to now is       45.1 secs

     Computing kpt #:    87
     total cpu time spent up to now is       45.7 secs

     Computing kpt #:    88
     total cpu time spent up to now is       46.3 secs

     Computing kpt #:    89
     total cpu time spent up to now is       46.7 secs

     Computing kpt #:    90
     total cpu time spent up to now is       47.1 secs

     Computing kpt #:    91
     total cpu time spent up to now is       47.7 secs

     Computing kpt #:    92
     total cpu time spent up to now is       48.1 secs

     Computing kpt #:    93
     total cpu time spent up to now is       48.6 secs

     Computing kpt #:    94
     total cpu time spent up to now is       49.0 secs

     Computing kpt #:    95
     total cpu time spent up to now is       49.4 secs

     Computing kpt #:    96
     total cpu time spent up to now is       49.8 secs

     Computing kpt #:    97
     total cpu time spent up to now is       50.3 secs

     Computing kpt #:    98
     total cpu time spent up to now is       50.7 secs

     Computing kpt #:    99
     total cpu time spent up to now is       51.2 secs

     Computing kpt #:   100
     total cpu time spent up to now is       51.7 secs

     Computing kpt #:   101
     total cpu time spent up to now is       52.1 secs

     Computing kpt #:   102
     total cpu time spent up to now is       52.5 secs

     Computing kpt #:   103
     total cpu time spent up to now is       53.0 secs

     Computing kpt #:   104
     total cpu time spent up to now is       53.5 secs

     Computing kpt #:   105
     total cpu time spent up to now is       53.9 secs

     Computing kpt #:   106
     total cpu time spent up to now is       54.3 secs

     Computing kpt #:   107
     total cpu time spent up to now is       54.8 secs

     Computing kpt #:   108
     total cpu time spent up to now is       55.2 secs

     Computing kpt #:   109
     total cpu time spent up to now is       55.6 secs

     Computing kpt #:   110
     total cpu time spent up to now is       56.0 secs

     Computing kpt #:   111
     total cpu time spent up to now is       56.5 secs

     Computing kpt #:   112
     total cpu time spent up to now is       56.9 secs

     Computing kpt #:   113
     total cpu time spent up to now is       57.4 secs

     Computing kpt #:   114
     total cpu time spent up to now is       57.9 secs

     Computing kpt #:   115
     total cpu time spent up to now is       58.3 secs

     Computing kpt #:   116
     total cpu time spent up to now is       58.8 secs

     Computing kpt #:   117
     total cpu time spent up to now is       59.2 secs

     Computing kpt #:   118
     total cpu time spent up to now is       59.6 secs

     Computing kpt #:   119
     total cpu time spent up to now is       60.0 secs

     Computing kpt #:   120
     total cpu time spent up to now is       60.4 secs

     ethr =  5.13E-09,  avg # of iterations = 36.8

     total cpu time spent up to now is       60.4 secs

     End of band structure calculation

          k = 0.0312 0.0312 0.0312 (  1027 PWs)   bands (ev):

   -41.7178 -18.1114 -18.1104 -18.1104   7.6510  11.0869  11.0869  13.6838
    13.6838  13.7245  15.8767  15.8767  17.6659  17.7600

          k = 0.0312 0.0312 0.0938 (  1031 PWs)   bands (ev):

   -41.7150 -18.1358 -18.1093 -18.1088   7.8096  11.1595  11.1690  13.6568
    13.6724  13.7726  15.7893  15.9135  17.4321  17.5472

          k = 0.0312 0.0312 0.1562 (  1042 PWs)   bands (ev):

   -41.7100 -18.1817 -18.1062 -18.1057   8.1196  11.3017  11.3184  13.6322
    13.6530  13.8396  15.6191  15.9749  17.0845  17.1903

          k = 0.0312 0.0312 0.2188 (  1042 PWs)   bands (ev):

   -41.7034 -18.2412 -18.1021 -18.1018   8.5659  11.5053  11.5075  13.6131
    13.6316  13.9212  15.3763  16.0318  16.6935  16.7744

          k = 0.0312 0.0312 0.2812 (  1054 PWs)   bands (ev):

   -41.6962 -18.3051 -18.0976 -18.0974   9.1248  11.6851  11.7662  13.6045
    13.6136  14.0072  15.0780  16.0198  16.3400  16.3674

          k = 0.0312 0.0312 0.3438 (  1053 PWs)   bands (ev):

   -41.6896 -18.3636 -18.0935 -18.0934   9.7608  11.7980  12.0587  13.6002
    13.6099  14.0829  14.7523  15.8410  16.0177  16.1124

          k = 0.0312 0.0312 0.4062 (  1056 PWs)   bands (ev):

   -41.6845 -18.4081 -18.0904 -18.0904  10.4181  11.7729  12.3478  13.5854
    13.6274  14.1347  14.4481  15.5957  15.7609  15.9385

          k = 0.0312 0.0312 0.4688 (  1046 PWs)   bands (ev):

   -41.6817 -18.4321 -18.0887 -18.0887  10.9967  11.5642  12.5534  13.5642
    13.6450  14.1583  14.2505  15.4240  15.6244  15.8207

          k = 0.0312 0.0938 0.0938 (  1043 PWs)   bands (ev):

   -41.7123 -18.1364 -18.1313 -18.1073   7.9653  11.2309  11.2491  13.5996
    13.6509  13.8444  15.7783  15.8910  17.1710  17.3972

          k = 0.0312 0.0938 0.1562 (  1043 PWs)   bands (ev):

   -41.7073 -18.1797 -18.1301 -18.1041   8.2689  11.3625  11.4027  13.5427
    13.6204  13.9205  15.6531  15.9401  16.8375  17.0653

          k = 0.0312 0.0938 0.2188 (  1046 PWs)   bands (ev):

   -41.7008 -18.2387 -18.1258 -18.1000   8.7050  11.5431  11.6035  13.5009
    13.5844  13.9844  15.4473  15.9995  16.5003  16.6828

          k = 0.0312 0.0938 0.2812 (  1047 PWs)   bands (ev):

   -41.6937 -18.3021 -18.1209 -18.0955   9.2487  11.7297  11.8370  13.4803
    13.5494  14.0201  15.1927  15.9345  16.2831  16.3367

          k = 0.0312 0.0938 0.3438 (  1052 PWs)   bands (ev):

   -41.6871 -18.3602 -18.1165 -18.0913   9.8631  11.8422  12.1026  13.4776
    13.5255  14.0161  14.9206  15.6866  16.0763  16.2285

          k = 0.0312 0.0938 0.4062 (  1052 PWs)   bands (ev):

   -41.6821 -18.4043 -18.1131 -18.0881  10.4923  11.8100  12.3665  13.4557
    13.5436  13.9794  14.6813  15.4338  15.9000  16.1794

          k = 0.0312 0.0938 0.4688 (  1055 PWs)   bands (ev):

   -41.6793 -18.4281 -18.1112 -18.0864  11.0381  11.6050  12.5529  13.4175
    13.5808  13.9406  14.5408  15.2671  15.7981  16.1427

          k = 0.0312 0.1562 0.1562 (  1045 PWs)   bands (ev):

   -41.7024 -18.1810 -18.1697 -18.1008   8.5591  11.4688  11.5674  13.4445
    13.5717  13.9876  15.6581  15.9215  16.5393  16.7879

          k = 0.0312 0.1562 0.2188 (  1048 PWs)   bands (ev):

   -41.6960 -18.2344 -18.1694 -18.0964   8.9728  11.6082  11.7857  13.3646
    13.5162  14.0066  15.5536  15.9558  16.2566  16.5088

          k = 0.0312 0.1562 0.2812 (  1047 PWs)   bands (ev):

   -41.6890 -18.2966 -18.1640 -18.0916   9.4824  11.7494  12.0286  13.3138
    13.4679  13.9619  15.3786  15.8006  16.1947  16.3321

          k = 0.0312 0.1562 0.3438 (  1052 PWs)   bands (ev):

   -41.6826 -18.3538 -18.1588 -18.0872  10.0474  11.8353  12.2708  13.2965
    13.4448  13.8628  15.1778  15.5342  16.1889  16.3350

          k = 0.0312 0.1562 0.4062 (  1054 PWs)   bands (ev):

   -41.6776 -18.3973 -18.1548 -18.0839  10.6099  11.7977  12.4859  13.3038
    13.4663  13.7428  15.0041  15.3036  16.1285  16.4282

          k = 0.0312 0.1562 0.4688 (  1059 PWs)   bands (ev):

   -41.6749 -18.4207 -18.1527 -18.0820  11.0752  11.6230  12.6242  13.3153
    13.5196  13.6448  14.9226  15.1360  16.0781  16.4992

          k = 0.0312 0.2188 0.2188 (  1052 PWs)   bands (ev):

   -41.6897 -18.2351 -18.2196 -18.0917   9.3482  11.6856  12.0290  13.2437
    13.4499  13.9481  15.6128  15.9690  15.9713  16.4058

          k = 0.0312 0.2188 0.2812 (  1051 PWs)   bands (ev):

   -41.6829 -18.2897 -18.2196 -18.0866   9.7975  11.7483  12.3005  13.1556
    13.4133  13.8155  15.5702  15.6810  16.0843  16.4171

          k = 0.0312 0.2188 0.3438 (  1050 PWs)   bands (ev):

   -41.6766 -18.3455 -18.2137 -18.0820  10.2737  11.7609  12.5569  13.1097
    13.4429  13.6457  15.4177  15.4900  16.2130  16.5272

          k = 0.0312 0.2188 0.4062 (  1052 PWs)   bands (ev):

   -41.6718 -18.3881 -18.2091 -18.0784  10.7177  11.6942  12.7467  13.1101
    13.4712  13.5745  15.1972  15.4040  16.2886  16.7041

          k = 0.0312 0.2188 0.4688 (  1062 PWs)   bands (ev):

   -41.6692 -18.4111 -18.2065 -18.0764  11.0486  11.5650  12.8408  13.1475
    13.3455  13.7222  15.0476  15.3388  16.3147  16.8592

          k = 0.0312 0.2812 0.2812 (  1052 PWs)   bands (ev):

   -41.6763 -18.2884 -18.2730 -18.0812  10.1508  11.7174  12.6133  13.0294
    13.4270  13.6160  15.5400  15.7578  16.0272  16.5751

          k = 0.0312 0.2812 0.3438 (  1052 PWs)   bands (ev):

   -41.6702 -18.3366 -18.2725 -18.0762  10.4908  11.6488  12.9111  12.9500
    13.4068  13.5568  15.4334  15.7477  16.1497  16.7769

          k = 0.0312 0.2812 0.4062 (  1056 PWs)   bands (ev):

   -41.6655 -18.3781 -18.2673 -18.0724  10.7712  11.5494  12.9229  13.1054
    13.2362  13.8356  15.2499  15.7248  16.3218  17.0002

          k = 0.0312 0.2812 0.4688 (  1059 PWs)   bands (ev):

   -41.6629 -18.4006 -18.2643 -18.0703  10.9501  11.4558  12.9510  13.0569
    13.2413  14.1503  15.0291  15.7209  16.4367  17.1964

          k = 0.0312 0.3438 0.3438 (  1050 PWs)   bands (ev):

   -41.6642 -18.3329 -18.3220 -18.0709  10.6590  11.5233  12.8345  13.1809
    13.2862  13.7928  15.4796  15.9750  16.0757  17.0336

          k = 0.0312 0.3438 0.4062 (  1052 PWs)   bands (ev):

   -41.6596 -18.3690 -18.3207 -18.0669  10.7685  11.4110  12.7771  12.9933
    13.5697  14.1726  15.4078  16.0014  16.2433  17.2771

          k = 0.0312 0.3438 0.4688 (  1054 PWs)   bands (ev):

   -41.6571 -18.3910 -18.3174 -18.0647  10.8241  11.3417  12.7822  12.8604
    13.7010  14.6426  15.1143  16.0459  16.4072  17.4823

          k = 0.0312 0.4062 0.4062 (  1048 PWs)   bands (ev):

   -41.6551 -18.3640 -18.3592 -18.0626  10.7398  11.3074  12.6877  12.8216
    13.9799  14.5144  15.6127  16.0737  16.2424  17.5119

          k = 0.0312 0.4062 0.4688 (  1048 PWs)   bands (ev):

   -41.6527 -18.3835 -18.3577 -18.0603  10.7168  11.2528  12.6636  12.7097
    14.1904  14.8882  15.5021  16.1922  16.3057  17.6910

          k = 0.0312 0.4688 0.4688 (  1048 PWs)   bands (ev):

   -41.6503 -18.3798 -18.3792 -18.0580  10.6567  11.2049  12.6091  12.6244
    14.5184  15.0173  15.8951  15.9948  16.3745  17.8165

          k = 0.0938 0.0938 0.0938 (  1048 PWs)   bands (ev):

   -41.7097 -18.1366 -18.1297 -18.1297   8.1184  11.3147  11.3147  13.5801
    13.5801  13.9082  15.8249  15.8249  16.8808  17.5296

          k = 0.0938 0.0938 0.1562 (  1049 PWs)   bands (ev):

   -41.7047 -18.1777 -18.1299 -18.1265   8.4166  11.4426  11.4665  13.5045
    13.5446  13.9669  15.6966  15.9039  16.5742  17.1695

          k = 0.0938 0.0938 0.2188 (  1048 PWs)   bands (ev):

   -41.6982 -18.2362 -18.1250 -18.1225   8.8438  11.6263  11.6543  13.4479
    13.4981  13.9905  15.5148  15.9704  16.3288  16.7539

          k = 0.0938 0.0938 0.2812 (  1047 PWs)   bands (ev):

   -41.6912 -18.2991 -18.1196 -18.1180   9.3742  11.8290  11.8546  13.4240
    13.4442  13.9663  15.2952  15.8999  16.2750  16.3520

          k = 0.0938 0.0938 0.3438 (  1055 PWs)   bands (ev):

   -41.6846 -18.3568 -18.1146 -18.1140   9.9698  11.9249  12.1087  13.3825
    13.4452  13.9070  15.0640  15.7137  16.0118  16.3565

          k = 0.0938 0.0938 0.4062 (  1057 PWs)   bands (ev):

   -41.6797 -18.4007 -18.1108 -18.1108  10.5745  11.8744  12.3555  13.3100
    13.5185  13.8431  14.8622  15.4868  15.7664  16.4620

          k = 0.0938 0.0938 0.4688 (  1059 PWs)   bands (ev):

   -41.6769 -18.4243 -18.1091 -18.1087  11.0932  11.6632  12.5297  13.2424
    13.6140  13.7902  14.7415  15.3025  15.6380  16.5457

          k = 0.0938 0.1562 0.1562 (  1054 PWs)   bands (ev):

   -41.6998 -18.1786 -18.1680 -18.1245   8.7033  11.5579  11.6191  13.4156
    13.4809  13.9836  15.7165  15.8863  16.3404  16.9907

          k = 0.0938 0.1562 0.2188 (  1054 PWs)   bands (ev):

   -41.6934 -18.2318 -18.1673 -18.1199   9.1110  11.7032  11.8249  13.3302
    13.4197  13.9347  15.6177  15.9371  16.2078  16.6476

          k = 0.0938 0.1562 0.2812 (  1050 PWs)   bands (ev):

   -41.6865 -18.2937 -18.1618 -18.1149   9.6113  11.8560  12.0413  13.2740
    13.3641  13.8308  15.4647  15.8599  16.2422  16.3675

          k = 0.0938 0.1562 0.3438 (  1051 PWs)   bands (ev):

   -41.6801 -18.3506 -18.1566 -18.1102  10.1628  11.9496  12.2455  13.2318
    13.3558  13.7201  15.2974  15.6469  16.0650  16.5133

          k = 0.0938 0.1562 0.4062 (  1053 PWs)   bands (ev):

   -41.6752 -18.3939 -18.1526 -18.1066  10.7077  11.8989  12.4317  13.1757
    13.4349  13.6470  15.1501  15.3965  15.8799  16.7588

          k = 0.0938 0.1562 0.4688 (  1054 PWs)   bands (ev):

   -41.6725 -18.4172 -18.1504 -18.1047  11.1557  11.7095  12.5606  13.1253
    13.5306  13.6243  15.0678  15.2000  15.7629  16.9660

          k = 0.0938 0.2188 0.2188 (  1052 PWs)   bands (ev):

   -41.6872 -18.2321 -18.2177 -18.1151   9.4848  11.7863  12.0603  13.2100
    13.3511  13.8023  15.6722  15.9563  16.1064  16.4867

          k = 0.0938 0.2188 0.2812 (  1047 PWs)   bands (ev):

   -41.6804 -18.2869 -18.2173 -18.1098   9.9308  11.8566  12.3130  13.1202
    13.3074  13.6377  15.6295  15.8288  16.1099  16.5051

          k = 0.0938 0.2188 0.3438 (  1045 PWs)   bands (ev):

   -41.6741 -18.3425 -18.2115 -18.1049  10.4004  11.8745  12.5298  13.0653
    13.3362  13.5003  15.5410  15.5744  16.1168  16.7284

          k = 0.0938 0.2188 0.4062 (  1047 PWs)   bands (ev):

   -41.6693 -18.3850 -18.2069 -18.1011  10.8339  11.8047  12.6674  13.0395
    13.3642  13.5330  15.2959  15.4906  16.0281  17.0568

          k = 0.0938 0.2188 0.4688 (  1054 PWs)   bands (ev):

   -41.6667 -18.4079 -18.2043 -18.0991  11.1542  11.6701  12.7307  13.0355
    13.3165  13.7165  15.0962  15.4484  15.9403  17.3548

          k = 0.0938 0.2812 0.2812 (  1049 PWs)   bands (ev):

   -41.6738 -18.2853 -18.2711 -18.1043  10.2876  11.8284  12.6183  12.9974
    13.3051  13.4415  15.6138  15.9028  16.0067  16.7183

          k = 0.0938 0.2812 0.3438 (  1048 PWs)   bands (ev):

   -41.6677 -18.3339 -18.2703 -18.0991  10.6265  11.7603  12.8764  12.9225
    13.2824  13.4298  15.4868  15.8358  16.0907  16.9977

          k = 0.0938 0.2812 0.4062 (  1052 PWs)   bands (ev):

   -41.6630 -18.3754 -18.2651 -18.0952  10.8995  11.6599  12.8769  12.9734
    13.2356  13.7246  15.2848  15.8019  16.1010  17.3469

          k = 0.0938 0.2812 0.4688 (  1053 PWs)   bands (ev):

   -41.6605 -18.3979 -18.2622 -18.0931  11.0691  11.5672  12.8848  12.9289
    13.2604  14.0562  15.0511  15.8159  16.0492  17.5225

          k = 0.0938 0.3438 0.3438 (  1047 PWs)   bands (ev):

   -41.6617 -18.3301 -18.3201 -18.0938  10.7959  11.6336  12.8072  13.0799
    13.2633  13.6488  15.4615  15.9897  16.0711  17.2967

          k = 0.0938 0.3438 0.4062 (  1052 PWs)   bands (ev):

   -41.6571 -18.3665 -18.3185 -18.0897  10.8992  11.5221  12.7501  12.9230
    13.5315  14.0335  15.3580  15.9550  16.1656  17.5807

          k = 0.0938 0.3438 0.4688 (  1051 PWs)   bands (ev):

   -41.6547 -18.3885 -18.3153 -18.0875  10.9480  11.4547  12.7496  12.8109
    13.6506  14.5010  15.0791  16.0031  16.1571  17.6248

          k = 0.0938 0.4062 0.4062 (  1050 PWs)   bands (ev):

   -41.6527 -18.3617 -18.3572 -18.0855  10.8679  11.4198  12.6667  12.7807
    13.9373  14.3787  15.4527  15.8445  16.3082  17.6852

          k = 0.0938 0.4062 0.4688 (  1046 PWs)   bands (ev):

   -41.6502 -18.3814 -18.3557 -18.0832  10.8423  11.3663  12.6426  12.6823
    14.1422  14.8128  15.2728  15.8365  16.3607  17.7610

          k = 0.0938 0.4688 0.4688 (  1047 PWs)   bands (ev):

   -41.6478 -18.3778 -18.3773 -18.0809  10.7828  11.3185  12.5920  12.6055
    14.5027  14.9870  15.5021  15.5838  16.4415  17.9228

          k = 0.1562 0.1562 0.1562 (  1057 PWs)   bands (ev):

   -41.6950 -18.1777 -18.1648 -18.1648   8.9822  11.7190  11.7190  13.3622
    13.3622  13.9153  15.8179  15.8179  16.2270  17.1385

          k = 0.1562 0.1562 0.2188 (  1049 PWs)   bands (ev):

   -41.6887 -18.2273 -18.1661 -18.1605   9.3764  11.8600  11.9152  13.2616
    13.2914  13.7719  15.7212  15.9147  16.2444  16.7245

          k = 0.1562 0.1562 0.2812 (  1051 PWs)   bands (ev):

   -41.6819 -18.2885 -18.1595 -18.1560   9.8551  12.0309  12.0845  13.2086
    13.2105  13.6098  15.6063  15.9031  16.3290  16.4286

          k = 0.1562 0.1562 0.3438 (  1048 PWs)   bands (ev):

   -41.6755 -18.3447 -18.1533 -18.1517  10.3736  12.1394  12.2150  13.1249
    13.2333  13.5106  15.4891  15.7415  15.9959  16.7391

          k = 0.1562 0.1562 0.4062 (  1054 PWs)   bands (ev):

   -41.6707 -18.3875 -18.1485 -18.1484  10.8734  12.0293  12.3877  13.0394
    13.3325  13.5214  15.3906  15.4675  15.7561  17.1049

          k = 0.1562 0.1562 0.4688 (  1053 PWs)   bands (ev):

   -41.6681 -18.4106 -18.1467 -18.1458  11.2730  11.8186  12.5068  12.9726
    13.3972  13.6242  15.2196  15.3332  15.6308  17.3661

          k = 0.1562 0.2188 0.2188 (  1052 PWs)   bands (ev):

   -41.6825 -18.2267 -18.2144 -18.1580   9.7464  11.9706  12.1195  13.1486
    13.2052  13.5541  15.7767  15.9285  16.3466  16.6029

          k = 0.1562 0.2188 0.2812 (  1049 PWs)   bands (ev):

   -41.6758 -18.2817 -18.2132 -18.1524  10.1839  12.0575  12.3342  13.0583
    13.1441  13.3652  15.7298  15.9168  16.2481  16.6732

          k = 0.1562 0.2188 0.3438 (  1049 PWs)   bands (ev):

   -41.6696 -18.3371 -18.2074 -18.1471  10.6368  12.0857  12.4680  12.9910
    13.1662  13.2988  15.6366  15.7457  16.0460  17.0206

          k = 0.1562 0.2188 0.4062 (  1049 PWs)   bands (ev):

   -41.6648 -18.3793 -18.2028 -18.1430  11.0435  11.9951  12.5362  12.9317
    13.2208  13.4492  15.3961  15.6470  15.8494  17.3690

          k = 0.1562 0.2188 0.4688 (  1053 PWs)   bands (ev):

   -41.6622 -18.4020 -18.2003 -18.1408  11.3377  11.8383  12.5848  12.8910
    13.2465  13.6750  15.1414  15.6385  15.7034  17.4325

          k = 0.1562 0.2812 0.2812 (  1049 PWs)   bands (ev):

   -41.6692 -18.2795 -18.2677 -18.1466  10.5488  12.0356  12.6255  12.9403
    13.1033  13.1802  15.6931  15.9538  16.1541  16.9825

          k = 0.1562 0.2812 0.3438 (  1045 PWs)   bands (ev):

   -41.6631 -18.3289 -18.2662 -18.1413  10.8860  11.9650  12.7947  12.8677
    13.1142  13.2205  15.5493  15.8684  16.1346  17.2842

          k = 0.1562 0.2812 0.4062 (  1047 PWs)   bands (ev):

   -41.6585 -18.3703 -18.2611 -18.1372  11.1426  11.8564  12.7695  12.8328
    13.1716  13.5514  15.3275  15.7640  16.0762  17.4168

          k = 0.1562 0.2812 0.4688 (  1050 PWs)   bands (ev):

   -41.6559 -18.3927 -18.2583 -18.1349  11.2925  11.7605  12.7431  12.8143
    13.2169  13.8963  15.0715  15.7074  16.0247  17.4992

          k = 0.1562 0.3438 0.3438 (  1046 PWs)   bands (ev):

   -41.6571 -18.3249 -18.3165 -18.1359  11.0608  11.8338  12.7593  12.9224
    13.2149  13.3966  15.4570  15.8255  16.2577  17.3678

          k = 0.1562 0.3438 0.4062 (  1046 PWs)   bands (ev):

   -41.6526 -18.3620 -18.3146 -18.1317  11.1513  11.7223  12.7038  12.8137
    13.4387  13.7916  15.3139  15.7087  16.3177  17.5061

          k = 0.1562 0.3438 0.4688 (  1043 PWs)   bands (ev):

   -41.6501 -18.3841 -18.3116 -18.1295  11.1860  11.6579  12.6952  12.7334
    13.5368  14.2393  15.0469  15.6529  16.3248  17.6079

          k = 0.1562 0.4062 0.4062 (  1046 PWs)   bands (ev):

   -41.6481 -18.3574 -18.3536 -18.1276  11.1156  11.6245  12.6309  12.7157
    13.8421  14.0970  15.3150  15.5302  16.4659  17.6562

          k = 0.1562 0.4062 0.4688 (  1040 PWs)   bands (ev):

   -41.6456 -18.3775 -18.3520 -18.1253  11.0852  11.5737  12.6077  12.6382
    14.0224  14.5495  15.0775  15.4597  16.5187  17.7837

          k = 0.1562 0.4688 0.4688 (  1040 PWs)   bands (ev):

   -41.6432 -18.3741 -18.3737 -18.1230  11.0273  11.5276  12.5636  12.5747
    14.4425  14.7759  15.1063  15.1685  16.5963  17.9538

          k = 0.2188 0.2188 0.2188 (  1039 PWs)   bands (ev):

   -41.6764 -18.2232 -18.2100 -18.2100  10.1078  12.1999  12.1999  13.0696
    13.0696  13.2749  15.8820  15.8820  16.6352  16.7449

          k = 0.2188 0.2188 0.2812 (  1046 PWs)   bands (ev):

   -41.6697 -18.2752 -18.2101 -18.2053  10.5270  12.2920  12.3827  12.9828
    12.9843  13.0801  15.8117  15.8890  16.4114  16.8964

          k = 0.2188 0.2188 0.3438 (  1048 PWs)   bands (ev):

   -41.6636 -18.3300 -18.2030 -18.2009  10.9425  12.3406  12.3847  12.9028
    13.0090  13.1192  15.7160  15.7214  16.1702  17.1500

          k = 0.2188 0.2188 0.4062 (  1051 PWs)   bands (ev):

   -41.6589 -18.3718 -18.1975 -18.1974  11.2888  12.1467  12.4651  12.8338
    13.0880  13.3756  15.4156  15.6144  16.0308  17.3462

          k = 0.2188 0.2188 0.4688 (  1044 PWs)   bands (ev):

   -41.6564 -18.3943 -18.1957 -18.1944  11.5200  11.9682  12.5166  12.7896
    13.1491  13.6468  15.1204  15.5494  15.9702  17.4491

          k = 0.2188 0.2812 0.2812 (  1046 PWs)   bands (ev):

   -41.6632 -18.2721 -18.2631 -18.2016  10.9061  12.3109  12.6297  12.8484
    12.8701  12.9421  15.7423  15.8527  16.4435  16.9269

          k = 0.2188 0.2812 0.3438 (  1046 PWs)   bands (ev):

   -41.6571 -18.3223 -18.2608 -18.1960  11.2408  12.2185  12.6555  12.7979
    12.9547  13.0278  15.5847  15.7252  16.3808  17.1368

          k = 0.2188 0.2812 0.4062 (  1047 PWs)   bands (ev):

   -41.6525 -18.3637 -18.2559 -18.1917  11.4653  12.0759  12.6190  12.7538
    13.0428  13.3934  15.3383  15.5749  16.3235  17.3660

          k = 0.2188 0.2812 0.4688 (  1042 PWs)   bands (ev):

   -41.6500 -18.3860 -18.2532 -18.1893  11.5781  11.9686  12.6072  12.7316
    13.1166  13.7298  15.0548  15.5020  16.2941  17.4996

          k = 0.2188 0.3438 0.3438 (  1045 PWs)   bands (ev):

   -41.6512 -18.3181 -18.3119 -18.1905  11.4345  12.0745  12.7022  12.7731
    13.0985  13.1389  15.4508  15.6206  16.5227  17.2634

          k = 0.2188 0.3438 0.4062 (  1047 PWs)   bands (ev):

   -41.6466 -18.3562 -18.3095 -18.1863  11.5037  11.9622  12.6508  12.7161
    13.2622  13.5374  15.2707  15.4708  16.5707  17.4718

          k = 0.2188 0.3438 0.4688 (  1046 PWs)   bands (ev):

   -41.6441 -18.3782 -18.3066 -18.1840  11.5136  11.9024  12.6347  12.6676
    13.3555  13.9374  14.9995  15.4096  16.5797  17.6165

          k = 0.2188 0.4062 0.4062 (  1044 PWs)   bands (ev):

   -41.6420 -18.3517 -18.3490 -18.1822  11.4641  11.8794  12.5911  12.6579
    13.6839  13.7340  15.2349  15.2527  16.7099  17.6580

          k = 0.2188 0.4062 0.4688 (  1042 PWs)   bands (ev):

   -41.6396 -18.3723 -18.3472 -18.1799  11.4267  11.8359  12.5714  12.5977
    13.8028  14.1590  14.9509  15.2316  16.7604  17.8084

          k = 0.2188 0.4688 0.4688 (  1029 PWs)   bands (ev):

   -41.6371 -18.3693 -18.3690 -18.1778  11.3735  11.7975  12.5342  12.5445
    14.2298  14.3176  14.7979  15.0820  16.8339  17.9744

          k = 0.2812 0.2812 0.2812 (  1045 PWs)   bands (ev):

   -41.6567 -18.2663 -18.2582 -18.2582  11.3014  12.5718  12.6259  12.6259
    12.8006  12.8006  15.7083  15.7083  16.7586  16.7586

          k = 0.2812 0.2812 0.3438 (  1038 PWs)   bands (ev):

   -41.6507 -18.3154 -18.2559 -18.2537  11.6245  12.3481  12.6118  12.7440
    12.7881  12.9544  15.5494  15.5582  16.6682  17.0893

          k = 0.2812 0.2812 0.4062 (  1042 PWs)   bands (ev):

   -41.6461 -18.3565 -18.2502 -18.2502  11.7772  12.1814  12.5928  12.7065
    12.9195  13.3083  15.2750  15.4422  16.6241  17.3761

          k = 0.2812 0.2812 0.4688 (  1045 PWs)   bands (ev):

   -41.6436 -18.3787 -18.2483 -18.2470  11.8155  12.0925  12.5796  12.6880
    13.0258  13.6360  14.9963  15.3810  16.6062  17.5409

          k = 0.2812 0.3438 0.3438 (  1038 PWs)   bands (ev):

   -41.6447 -18.3107 -18.3069 -18.2492  11.8798  12.2427  12.6497  12.7420
    12.8134  13.0376  15.4021  15.4264  16.8498  17.2187

          k = 0.2812 0.3438 0.4062 (  1040 PWs)   bands (ev):

   -41.6401 -18.3499 -18.3039 -18.2449  11.9070  12.1578  12.6122  12.7003
    13.0163  13.3388  15.1801  15.3112  16.8866  17.4766

          k = 0.2812 0.3438 0.4688 (  1043 PWs)   bands (ev):

   -41.6376 -18.3719 -18.3013 -18.2426  11.8726  12.1127  12.6088  12.6518
    13.1374  13.6709  14.9287  15.2614  16.8928  17.6494

          k = 0.2812 0.4062 0.4062 (  1039 PWs)   bands (ev):

   -41.6355 -18.3456 -18.3439 -18.2409  11.8723  12.1240  12.5607  12.6559
    13.3735  13.4707  15.0604  15.1591  17.0263  17.6739

          k = 0.2812 0.4062 0.4688 (  1041 PWs)   bands (ev):

   -41.6330 -18.3668 -18.3420 -18.2387  11.8301  12.0960  12.5525  12.5914
    13.5058  13.7803  14.8466  15.1124  17.0732  17.8349

          k = 0.2812 0.4688 0.4688 (  1036 PWs)   bands (ev):

   -41.6306 -18.3641 -18.3639 -18.2365  11.7926  12.0810  12.5170  12.5329
    13.8592  13.8640  14.7037  15.0174  17.1444  17.9930

          k = 0.3438 0.3438 0.3438 (  1039 PWs)   bands (ev):

   -41.6387 -18.3047 -18.3022 -18.3022  12.1852  12.3565  12.6149  12.6149
    12.9212  12.9212  15.2760  15.2760  17.2065  17.2065

          k = 0.3438 0.3438 0.4062 (  1039 PWs)   bands (ev):

   -41.6341 -18.3440 -18.2987 -18.2987  12.1471  12.3313  12.6083  12.8065
    12.8249  13.2098  15.0685  15.1788  17.2072  17.5267

          k = 0.3438 0.3438 0.4688 (  1044 PWs)   bands (ev):

   -41.6316 -18.3661 -18.2968 -18.2958  12.1178  12.2398  12.6339  12.7133
    12.9884  13.5041  14.8590  15.1323  17.2100  17.7198

          k = 0.3438 0.4062 0.4062 (  1038 PWs)   bands (ev):

   -41.6295 -18.3399 -18.3392 -18.2947  12.1703  12.3934  12.5529  12.7561
    13.0800  13.2364  14.9466  15.0458  17.3821  17.6934

          k = 0.3438 0.4062 0.4688 (  1043 PWs)   bands (ev):

   -41.6270 -18.3616 -18.3372 -18.2925  12.1923  12.3071  12.5813  12.6674
    13.2029  13.4663  14.7836  14.9965  17.4220  17.8635

          k = 0.3438 0.4688 0.4688 (  1042 PWs)   bands (ev):

   -41.6245 -18.3592 -18.3591 -18.2904  12.2266  12.3297  12.5249  12.5699
    13.4768  13.4915  14.6790  14.9192  17.4967  18.0092

          k = 0.4062 0.4062 0.4062 (  1046 PWs)   bands (ev):

   -41.6249 -18.3356 -18.3356 -18.3356  12.2655  12.5775  12.5775  12.9242
    13.0214  13.0214  14.8868  14.8868  17.7097  17.7097

          k = 0.4062 0.4062 0.4688 (  1048 PWs)   bands (ev):

   -41.6224 -18.3577 -18.3337 -18.3332  12.3495  12.4682  12.6286  12.8669
    12.9915  13.2595  14.7402  14.8614  17.7188  17.9124

          k = 0.4062 0.4688 0.4688 (  1056 PWs)   bands (ev):

   -41.6199 -18.3555 -18.3555 -18.3314  12.4532  12.5670  12.5721  12.7474
    13.1789  13.1896  14.6719  14.7862  17.8238  18.0213

          k = 0.4688 0.4688 0.4688 (  1064 PWs)   bands (ev):

   -41.6174 -18.3536 -18.3536 -18.3535  12.5615  12.6315  12.6315  12.9903
    12.9903  13.0121  14.6701  14.6701  18.0279  18.0279

     Writing output data file pwscf.save/

     init_run     :      1.06s CPU      0.88s WALL (       1 calls)
     electrons    :    116.06s CPU     58.98s WALL (       1 calls)

     Called by init_run:
     wfcinit      :      0.00s CPU      0.00s WALL (       1 calls)
     wfcinit:atom :      0.08s CPU      0.04s WALL (     120 calls)
     wfcinit:wfcr :      3.06s CPU      1.54s WALL (     120 calls)
     potinit      :      0.02s CPU      0.01s WALL (       1 calls)
     hinit0       :      0.69s CPU      0.66s WALL (       1 calls)

     Called by electrons:
     c_bands      :    116.05s CPU     58.98s WALL (       1 calls)
     v_of_rho     :      0.01s CPU      0.00s WALL (       1 calls)
     v_h          :      0.00s CPU      0.00s WALL (       1 calls)
     v_xc         :      0.01s CPU      0.00s WALL (       1 calls)
     newd         :      0.34s CPU      0.19s WALL (       1 calls)

     Called by c_bands:
     init_us_2    :      0.11s CPU      0.06s WALL (     120 calls)
     ccgdiagg     :    106.78s CPU     54.30s WALL (     375 calls)
     wfcrot       :      8.68s CPU      4.37s WALL (     375 calls)

     Called by sum_band:

     Called by *cgdiagg:
     h_psi        :     80.32s CPU     40.79s WALL (   56938 calls)
     s_psi        :     16.13s CPU      8.21s WALL (  113501 calls)
     cdiaghg      :      0.08s CPU      0.04s WALL (     375 calls)

     Called by h_psi:
     h_psi:pot    :     79.69s CPU     40.46s WALL (   56938 calls)
     h_psi:calbec :      8.60s CPU      4.34s WALL (   56938 calls)
     vloc_psi     :     62.04s CPU     31.56s WALL (   56938 calls)
     add_vuspsi   :      8.49s CPU      4.29s WALL (   56938 calls)
     h_1psi       :     82.27s CPU     41.80s WALL (   56563 calls)

     General routines
     calbec       :     15.77s CPU      7.99s WALL (  113501 calls)
     fft          :      0.01s CPU      0.01s WALL (       7 calls)
     ffts         :      0.00s CPU      0.00s WALL (       1 calls)
     fftw         :     58.01s CPU     29.51s WALL (  124106 calls)
     interpolate  :      0.00s CPU      0.00s WALL (       1 calls)
     davcio       :      0.04s CPU      0.02s WALL (     240 calls)

     Parallel routines

     PWSCF        :  1m58.61s CPU     1m 1.47s WALL


   This run was terminated on:  16:36:59  20Jun2019            

=------------------------------------------------------------------------------=
   JOB DONE.
=------------------------------------------------------------------------------=
