
     Program PWSCF v.6.3 starts on 21Jun2019 at 18: 1: 9 

     This program is part of the open-source Quantum ESPRESSO suite
     for quantum simulation of materials; please cite
         "P. Giannozzi et al., J. Phys.:Condens. Matter 21 395502 (2009);
         "P. Giannozzi et al., J. Phys.:Condens. Matter 29 465901 (2017);
          URL http://www.quantum-espresso.org", 
     in publications or presentations arising from this work. More details at
     http://www.quantum-espresso.org/quote

     Parallel version (MPI & OpenMP), running on       2 processor cores
     Number of MPI processes:                 1
     Threads/MPI process:                     2

     MPI processes distributed on     1 nodes
     Reading input from /home/bokhamala/FeTi/FeTi_nscf.in
Warning: card  &IONS ignored
Warning: card  ION_DYNAMICS ='BFGS' ignored
Warning: card  / ignored
Warning: card  &CELL ignored
Warning: card  CELL_FACTOR = 10 ignored
Warning: card  CELL_DYNAMICS='DAMP-W', ignored
Warning: card  / ignored

     Current dimensions of program PWSCF are:
     Max number of different atomic species (ntypx) = 10
     Max number of k-points (npk) =  40000
     Max angular momentum in pseudopotentials (lmaxx) =  3

     Atomic positions and unit cell read from directory:
     ./1.save/

               file Fe.pz-nd-rrkjus.UPF: wavefunction(s)  4S renormalized

     Subspace diagonalization in iterative solution of the eigenvalue problem:
     a serial algorithm will be used


     G-vector sticks info
     --------------------
     sticks:   dense  smooth     PW     G-vecs:    dense   smooth      PW
     Sum         497     497    161                 8385     8385    1503



     bravais-lattice index     =            1
     lattice parameter (alat)  =       5.6000  a.u.
     unit-cell volume          =     175.6160 (a.u.)^3
     number of atoms/cell      =            2
     number of atomic types    =            2
     number of electrons       =        19.50
     number of Kohn-Sham states=           14
     kinetic-energy cutoff     =      50.0000  Ry
     charge density cutoff     =     200.0000  Ry
     Exchange-correlation      = SLA PZ NOGX NOGC ( 1  1  0  0 0 0)

     celldm(1)=   5.600000  celldm(2)=   0.000000  celldm(3)=   0.000000
     celldm(4)=   0.000000  celldm(5)=   0.000000  celldm(6)=   0.000000

     crystal axes: (cart. coord. in units of alat)
               a(1) = (   1.000000   0.000000   0.000000 )  
               a(2) = (   0.000000   1.000000   0.000000 )  
               a(3) = (   0.000000   0.000000   1.000000 )  

     reciprocal axes: (cart. coord. in units 2 pi/alat)
               b(1) = (  1.000000  0.000000  0.000000 )  
               b(2) = (  0.000000  1.000000  0.000000 )  
               b(3) = (  0.000000  0.000000  1.000000 )  


     PseudoPot. # 1 for Fe read from file:
     /shared/tools/qe/qe-6.3/pseudo/Fe.pz-nd-rrkjus.UPF
     MD5 check sum: b5eb2b1fd79b39c9eac5f7a31bc313a7
     Pseudo is Ultrasoft + core correction, Zval =  8.0
     Generated by new atomic code, or converted to UPF format
     Using radial grid of  957 points,  6 beta functions with: 
                l(1) =   0
                l(2) =   0
                l(3) =   1
                l(4) =   1
                l(5) =   2
                l(6) =   2
     Q(r) pseudized with 0 coefficients 


     PseudoPot. # 2 for Ti read from file:
     /shared/tools/qe/qe-6.3/pseudo/Ti.pz-sp-van_ak.UPF
     MD5 check sum: 93c5ef60b250b0ab110b997ad8a4342c
     Pseudo is Ultrasoft, Zval = 12.0
     Generated by new atomic code, or converted to UPF format
     Using radial grid of  851 points,  6 beta functions with: 
                l(1) =   0
                l(2) =   0
                l(3) =   1
                l(4) =   1
                l(5) =   2
                l(6) =   2
     Q(r) pseudized with  8 coefficients,  rinner =    1.000   1.000   1.000
                                                       1.000   1.000

     atomic species   valence    mass     pseudopotential
        Fe             8.00    55.84500     Fe( 1.00)
        Ti            12.00    47.86700     Ti( 1.00)

     48 Sym. Ops., with inversion, found


                                    s                        frac. trans.

      isym =  1     identity                                     

 cryst.   s( 1) = (     1          0          0      )
                  (     0          1          0      )
                  (     0          0          1      )

 cart.    s( 1) = (  1.0000000  0.0000000  0.0000000 )
                  (  0.0000000  1.0000000  0.0000000 )
                  (  0.0000000  0.0000000  1.0000000 )


      isym =  2     180 deg rotation - cart. axis [0,0,1]        

 cryst.   s( 2) = (    -1          0          0      )
                  (     0         -1          0      )
                  (     0          0          1      )

 cart.    s( 2) = ( -1.0000000  0.0000000  0.0000000 )
                  (  0.0000000 -1.0000000  0.0000000 )
                  (  0.0000000  0.0000000  1.0000000 )


      isym =  3     180 deg rotation - cart. axis [0,1,0]        

 cryst.   s( 3) = (    -1          0          0      )
                  (     0          1          0      )
                  (     0          0         -1      )

 cart.    s( 3) = ( -1.0000000  0.0000000  0.0000000 )
                  (  0.0000000  1.0000000  0.0000000 )
                  (  0.0000000  0.0000000 -1.0000000 )


      isym =  4     180 deg rotation - cart. axis [1,0,0]        

 cryst.   s( 4) = (     1          0          0      )
                  (     0         -1          0      )
                  (     0          0         -1      )

 cart.    s( 4) = (  1.0000000  0.0000000  0.0000000 )
                  (  0.0000000 -1.0000000  0.0000000 )
                  (  0.0000000  0.0000000 -1.0000000 )


      isym =  5     180 deg rotation - cart. axis [1,1,0]        

 cryst.   s( 5) = (     0          1          0      )
                  (     1          0          0      )
                  (     0          0         -1      )

 cart.    s( 5) = (  0.0000000  1.0000000  0.0000000 )
                  (  1.0000000  0.0000000  0.0000000 )
                  (  0.0000000  0.0000000 -1.0000000 )


      isym =  6     180 deg rotation - cart. axis [1,-1,0]       

 cryst.   s( 6) = (     0         -1          0      )
                  (    -1          0          0      )
                  (     0          0         -1      )

 cart.    s( 6) = (  0.0000000 -1.0000000  0.0000000 )
                  ( -1.0000000  0.0000000  0.0000000 )
                  (  0.0000000  0.0000000 -1.0000000 )


      isym =  7      90 deg rotation - cart. axis [0,0,-1]       

 cryst.   s( 7) = (     0         -1          0      )
                  (     1          0          0      )
                  (     0          0          1      )

 cart.    s( 7) = (  0.0000000  1.0000000  0.0000000 )
                  ( -1.0000000  0.0000000  0.0000000 )
                  (  0.0000000  0.0000000  1.0000000 )


      isym =  8      90 deg rotation - cart. axis [0,0,1]        

 cryst.   s( 8) = (     0          1          0      )
                  (    -1          0          0      )
                  (     0          0          1      )

 cart.    s( 8) = (  0.0000000 -1.0000000  0.0000000 )
                  (  1.0000000  0.0000000  0.0000000 )
                  (  0.0000000  0.0000000  1.0000000 )


      isym =  9     180 deg rotation - cart. axis [1,0,1]        

 cryst.   s( 9) = (     0          0          1      )
                  (     0         -1          0      )
                  (     1          0          0      )

 cart.    s( 9) = (  0.0000000  0.0000000  1.0000000 )
                  (  0.0000000 -1.0000000  0.0000000 )
                  (  1.0000000  0.0000000  0.0000000 )


      isym = 10     180 deg rotation - cart. axis [-1,0,1]       

 cryst.   s(10) = (     0          0         -1      )
                  (     0         -1          0      )
                  (    -1          0          0      )

 cart.    s(10) = (  0.0000000  0.0000000 -1.0000000 )
                  (  0.0000000 -1.0000000  0.0000000 )
                  ( -1.0000000  0.0000000  0.0000000 )


      isym = 11      90 deg rotation - cart. axis [0,1,0]        

 cryst.   s(11) = (     0          0         -1      )
                  (     0          1          0      )
                  (     1          0          0      )

 cart.    s(11) = (  0.0000000  0.0000000  1.0000000 )
                  (  0.0000000  1.0000000  0.0000000 )
                  ( -1.0000000  0.0000000  0.0000000 )


      isym = 12      90 deg rotation - cart. axis [0,-1,0]       

 cryst.   s(12) = (     0          0          1      )
                  (     0          1          0      )
                  (    -1          0          0      )

 cart.    s(12) = (  0.0000000  0.0000000 -1.0000000 )
                  (  0.0000000  1.0000000  0.0000000 )
                  (  1.0000000  0.0000000  0.0000000 )


      isym = 13     180 deg rotation - cart. axis [0,1,1]        

 cryst.   s(13) = (    -1          0          0      )
                  (     0          0          1      )
                  (     0          1          0      )

 cart.    s(13) = ( -1.0000000  0.0000000  0.0000000 )
                  (  0.0000000  0.0000000  1.0000000 )
                  (  0.0000000  1.0000000  0.0000000 )


      isym = 14     180 deg rotation - cart. axis [0,1,-1]       

 cryst.   s(14) = (    -1          0          0      )
                  (     0          0         -1      )
                  (     0         -1          0      )

 cart.    s(14) = ( -1.0000000  0.0000000  0.0000000 )
                  (  0.0000000  0.0000000 -1.0000000 )
                  (  0.0000000 -1.0000000  0.0000000 )


      isym = 15      90 deg rotation - cart. axis [-1,0,0]       

 cryst.   s(15) = (     1          0          0      )
                  (     0          0         -1      )
                  (     0          1          0      )

 cart.    s(15) = (  1.0000000  0.0000000  0.0000000 )
                  (  0.0000000  0.0000000  1.0000000 )
                  (  0.0000000 -1.0000000  0.0000000 )


      isym = 16      90 deg rotation - cart. axis [1,0,0]        

 cryst.   s(16) = (     1          0          0      )
                  (     0          0          1      )
                  (     0         -1          0      )

 cart.    s(16) = (  1.0000000  0.0000000  0.0000000 )
                  (  0.0000000  0.0000000 -1.0000000 )
                  (  0.0000000  1.0000000  0.0000000 )


      isym = 17     120 deg rotation - cart. axis [-1,-1,-1]     

 cryst.   s(17) = (     0          0          1      )
                  (     1          0          0      )
                  (     0          1          0      )

 cart.    s(17) = (  0.0000000  1.0000000  0.0000000 )
                  (  0.0000000  0.0000000  1.0000000 )
                  (  1.0000000  0.0000000  0.0000000 )


      isym = 18     120 deg rotation - cart. axis [-1,1,1]       

 cryst.   s(18) = (     0          0         -1      )
                  (    -1          0          0      )
                  (     0          1          0      )

 cart.    s(18) = (  0.0000000 -1.0000000  0.0000000 )
                  (  0.0000000  0.0000000  1.0000000 )
                  ( -1.0000000  0.0000000  0.0000000 )


      isym = 19     120 deg rotation - cart. axis [1,1,-1]       

 cryst.   s(19) = (     0          0         -1      )
                  (     1          0          0      )
                  (     0         -1          0      )

 cart.    s(19) = (  0.0000000  1.0000000  0.0000000 )
                  (  0.0000000  0.0000000 -1.0000000 )
                  ( -1.0000000  0.0000000  0.0000000 )


      isym = 20     120 deg rotation - cart. axis [1,-1,1]       

 cryst.   s(20) = (     0          0          1      )
                  (    -1          0          0      )
                  (     0         -1          0      )

 cart.    s(20) = (  0.0000000 -1.0000000  0.0000000 )
                  (  0.0000000  0.0000000 -1.0000000 )
                  (  1.0000000  0.0000000  0.0000000 )


      isym = 21     120 deg rotation - cart. axis [1,1,1]        

 cryst.   s(21) = (     0          1          0      )
                  (     0          0          1      )
                  (     1          0          0      )

 cart.    s(21) = (  0.0000000  0.0000000  1.0000000 )
                  (  1.0000000  0.0000000  0.0000000 )
                  (  0.0000000  1.0000000  0.0000000 )


      isym = 22     120 deg rotation - cart. axis [-1,1,-1]      

 cryst.   s(22) = (     0         -1          0      )
                  (     0          0         -1      )
                  (     1          0          0      )

 cart.    s(22) = (  0.0000000  0.0000000  1.0000000 )
                  ( -1.0000000  0.0000000  0.0000000 )
                  (  0.0000000 -1.0000000  0.0000000 )


      isym = 23     120 deg rotation - cart. axis [1,-1,-1]      

 cryst.   s(23) = (     0         -1          0      )
                  (     0          0          1      )
                  (    -1          0          0      )

 cart.    s(23) = (  0.0000000  0.0000000 -1.0000000 )
                  ( -1.0000000  0.0000000  0.0000000 )
                  (  0.0000000  1.0000000  0.0000000 )


      isym = 24     120 deg rotation - cart. axis [-1,-1,1]      

 cryst.   s(24) = (     0          1          0      )
                  (     0          0         -1      )
                  (    -1          0          0      )

 cart.    s(24) = (  0.0000000  0.0000000 -1.0000000 )
                  (  1.0000000  0.0000000  0.0000000 )
                  (  0.0000000 -1.0000000  0.0000000 )


      isym = 25     inversion                                    

 cryst.   s(25) = (    -1          0          0      )
                  (     0         -1          0      )
                  (     0          0         -1      )

 cart.    s(25) = ( -1.0000000  0.0000000  0.0000000 )
                  (  0.0000000 -1.0000000  0.0000000 )
                  (  0.0000000  0.0000000 -1.0000000 )


      isym = 26     inv. 180 deg rotation - cart. axis [0,0,1]   

 cryst.   s(26) = (     1          0          0      )
                  (     0          1          0      )
                  (     0          0         -1      )

 cart.    s(26) = (  1.0000000  0.0000000  0.0000000 )
                  (  0.0000000  1.0000000  0.0000000 )
                  (  0.0000000  0.0000000 -1.0000000 )


      isym = 27     inv. 180 deg rotation - cart. axis [0,1,0]   

 cryst.   s(27) = (     1          0          0      )
                  (     0         -1          0      )
                  (     0          0          1      )

 cart.    s(27) = (  1.0000000  0.0000000  0.0000000 )
                  (  0.0000000 -1.0000000  0.0000000 )
                  (  0.0000000  0.0000000  1.0000000 )


      isym = 28     inv. 180 deg rotation - cart. axis [1,0,0]   

 cryst.   s(28) = (    -1          0          0      )
                  (     0          1          0      )
                  (     0          0          1      )

 cart.    s(28) = ( -1.0000000  0.0000000  0.0000000 )
                  (  0.0000000  1.0000000  0.0000000 )
                  (  0.0000000  0.0000000  1.0000000 )


      isym = 29     inv. 180 deg rotation - cart. axis [1,1,0]   

 cryst.   s(29) = (     0         -1          0      )
                  (    -1          0          0      )
                  (     0          0          1      )

 cart.    s(29) = (  0.0000000 -1.0000000  0.0000000 )
                  ( -1.0000000  0.0000000  0.0000000 )
                  (  0.0000000  0.0000000  1.0000000 )


      isym = 30     inv. 180 deg rotation - cart. axis [1,-1,0]  

 cryst.   s(30) = (     0          1          0      )
                  (     1          0          0      )
                  (     0          0          1      )

 cart.    s(30) = (  0.0000000  1.0000000  0.0000000 )
                  (  1.0000000  0.0000000  0.0000000 )
                  (  0.0000000  0.0000000  1.0000000 )


      isym = 31     inv.  90 deg rotation - cart. axis [0,0,-1]  

 cryst.   s(31) = (     0          1          0      )
                  (    -1          0          0      )
                  (     0          0         -1      )

 cart.    s(31) = (  0.0000000 -1.0000000  0.0000000 )
                  (  1.0000000  0.0000000  0.0000000 )
                  (  0.0000000  0.0000000 -1.0000000 )


      isym = 32     inv.  90 deg rotation - cart. axis [0,0,1]   

 cryst.   s(32) = (     0         -1          0      )
                  (     1          0          0      )
                  (     0          0         -1      )

 cart.    s(32) = (  0.0000000  1.0000000  0.0000000 )
                  ( -1.0000000  0.0000000  0.0000000 )
                  (  0.0000000  0.0000000 -1.0000000 )


      isym = 33     inv. 180 deg rotation - cart. axis [1,0,1]   

 cryst.   s(33) = (     0          0         -1      )
                  (     0          1          0      )
                  (    -1          0          0      )

 cart.    s(33) = (  0.0000000  0.0000000 -1.0000000 )
                  (  0.0000000  1.0000000  0.0000000 )
                  ( -1.0000000  0.0000000  0.0000000 )


      isym = 34     inv. 180 deg rotation - cart. axis [-1,0,1]  

 cryst.   s(34) = (     0          0          1      )
                  (     0          1          0      )
                  (     1          0          0      )

 cart.    s(34) = (  0.0000000  0.0000000  1.0000000 )
                  (  0.0000000  1.0000000  0.0000000 )
                  (  1.0000000  0.0000000  0.0000000 )


      isym = 35     inv.  90 deg rotation - cart. axis [0,1,0]   

 cryst.   s(35) = (     0          0          1      )
                  (     0         -1          0      )
                  (    -1          0          0      )

 cart.    s(35) = (  0.0000000  0.0000000 -1.0000000 )
                  (  0.0000000 -1.0000000  0.0000000 )
                  (  1.0000000  0.0000000  0.0000000 )


      isym = 36     inv.  90 deg rotation - cart. axis [0,-1,0]  

 cryst.   s(36) = (     0          0         -1      )
                  (     0         -1          0      )
                  (     1          0          0      )

 cart.    s(36) = (  0.0000000  0.0000000  1.0000000 )
                  (  0.0000000 -1.0000000  0.0000000 )
                  ( -1.0000000  0.0000000  0.0000000 )


      isym = 37     inv. 180 deg rotation - cart. axis [0,1,1]   

 cryst.   s(37) = (     1          0          0      )
                  (     0          0         -1      )
                  (     0         -1          0      )

 cart.    s(37) = (  1.0000000  0.0000000  0.0000000 )
                  (  0.0000000  0.0000000 -1.0000000 )
                  (  0.0000000 -1.0000000  0.0000000 )


      isym = 38     inv. 180 deg rotation - cart. axis [0,1,-1]  

 cryst.   s(38) = (     1          0          0      )
                  (     0          0          1      )
                  (     0          1          0      )

 cart.    s(38) = (  1.0000000  0.0000000  0.0000000 )
                  (  0.0000000  0.0000000  1.0000000 )
                  (  0.0000000  1.0000000  0.0000000 )


      isym = 39     inv.  90 deg rotation - cart. axis [-1,0,0]  

 cryst.   s(39) = (    -1          0          0      )
                  (     0          0          1      )
                  (     0         -1          0      )

 cart.    s(39) = ( -1.0000000  0.0000000  0.0000000 )
                  (  0.0000000  0.0000000 -1.0000000 )
                  (  0.0000000  1.0000000  0.0000000 )


      isym = 40     inv.  90 deg rotation - cart. axis [1,0,0]   

 cryst.   s(40) = (    -1          0          0      )
                  (     0          0         -1      )
                  (     0          1          0      )

 cart.    s(40) = ( -1.0000000  0.0000000  0.0000000 )
                  (  0.0000000  0.0000000  1.0000000 )
                  (  0.0000000 -1.0000000  0.0000000 )


      isym = 41     inv. 120 deg rotation - cart. axis [-1,-1,-1]

 cryst.   s(41) = (     0          0         -1      )
                  (    -1          0          0      )
                  (     0         -1          0      )

 cart.    s(41) = (  0.0000000 -1.0000000  0.0000000 )
                  (  0.0000000  0.0000000 -1.0000000 )
                  ( -1.0000000  0.0000000  0.0000000 )


      isym = 42     inv. 120 deg rotation - cart. axis [-1,1,1]  

 cryst.   s(42) = (     0          0          1      )
                  (     1          0          0      )
                  (     0         -1          0      )

 cart.    s(42) = (  0.0000000  1.0000000  0.0000000 )
                  (  0.0000000  0.0000000 -1.0000000 )
                  (  1.0000000  0.0000000  0.0000000 )


      isym = 43     inv. 120 deg rotation - cart. axis [1,1,-1]  

 cryst.   s(43) = (     0          0          1      )
                  (    -1          0          0      )
                  (     0          1          0      )

 cart.    s(43) = (  0.0000000 -1.0000000  0.0000000 )
                  (  0.0000000  0.0000000  1.0000000 )
                  (  1.0000000  0.0000000  0.0000000 )


      isym = 44     inv. 120 deg rotation - cart. axis [1,-1,1]  

 cryst.   s(44) = (     0          0         -1      )
                  (     1          0          0      )
                  (     0          1          0      )

 cart.    s(44) = (  0.0000000  1.0000000  0.0000000 )
                  (  0.0000000  0.0000000  1.0000000 )
                  ( -1.0000000  0.0000000  0.0000000 )


      isym = 45     inv. 120 deg rotation - cart. axis [1,1,1]   

 cryst.   s(45) = (     0         -1          0      )
                  (     0          0         -1      )
                  (    -1          0          0      )

 cart.    s(45) = (  0.0000000  0.0000000 -1.0000000 )
                  ( -1.0000000  0.0000000  0.0000000 )
                  (  0.0000000 -1.0000000  0.0000000 )


      isym = 46     inv. 120 deg rotation - cart. axis [-1,1,-1] 

 cryst.   s(46) = (     0          1          0      )
                  (     0          0          1      )
                  (    -1          0          0      )

 cart.    s(46) = (  0.0000000  0.0000000 -1.0000000 )
                  (  1.0000000  0.0000000  0.0000000 )
                  (  0.0000000  1.0000000  0.0000000 )


      isym = 47     inv. 120 deg rotation - cart. axis [1,-1,-1] 

 cryst.   s(47) = (     0          1          0      )
                  (     0          0         -1      )
                  (     1          0          0      )

 cart.    s(47) = (  0.0000000  0.0000000  1.0000000 )
                  (  1.0000000  0.0000000  0.0000000 )
                  (  0.0000000 -1.0000000  0.0000000 )


      isym = 48     inv. 120 deg rotation - cart. axis [-1,-1,1] 

 cryst.   s(48) = (     0         -1          0      )
                  (     0          0          1      )
                  (     1          0          0      )

 cart.    s(48) = (  0.0000000  0.0000000  1.0000000 )
                  ( -1.0000000  0.0000000  0.0000000 )
                  (  0.0000000  1.0000000  0.0000000 )


     point group O_h (m-3m) 
     there are 10 classes
     the character table:

       E     8C3   3C2   6C4   6C2'  i     8S6   3s_h  6S4   6s_d 
A_1g   1.00  1.00  1.00  1.00  1.00  1.00  1.00  1.00  1.00  1.00
A_2g   1.00  1.00  1.00 -1.00 -1.00  1.00  1.00  1.00 -1.00 -1.00
E_g    2.00 -1.00  2.00  0.00  0.00  2.00 -1.00  2.00  0.00  0.00
T_1g   3.00  0.00 -1.00  1.00 -1.00  3.00  0.00 -1.00  1.00 -1.00
T_2g   3.00  0.00 -1.00 -1.00  1.00  3.00  0.00 -1.00 -1.00  1.00
A_1u   1.00  1.00  1.00  1.00  1.00 -1.00 -1.00 -1.00 -1.00 -1.00
A_2u   1.00  1.00  1.00 -1.00 -1.00 -1.00 -1.00 -1.00  1.00  1.00
E_u    2.00 -1.00  2.00  0.00  0.00 -2.00  1.00 -2.00  0.00  0.00
T_1u   3.00  0.00 -1.00  1.00 -1.00 -3.00  0.00  1.00 -1.00  1.00
T_2u   3.00  0.00 -1.00 -1.00  1.00 -3.00  0.00  1.00  1.00 -1.00

     the symmetry operations in each class and the name of the first element:

     E        1
          identity                                               
     8C3     17   19   20   18   24   21   22   23
          120 deg rotation - cart. axis [-1,-1,-1]               
     3C2      2    4    3
          180 deg rotation - cart. axis [0,0,1]                  
     6C4      7    8   15   16   12   11
           90 deg rotation - cart. axis [0,0,-1]                 
     6C2'     5    6   14   13   10    9
          180 deg rotation - cart. axis [1,1,0]                  
     i       25
          inversion                                              
     8S6     41   43   44   42   48   45   46   47
          inv. 120 deg rotation - cart. axis [-1,-1,-1]          
     3s_h    26   28   27
          inv. 180 deg rotation - cart. axis [0,0,1]             
     6S4     31   32   39   40   36   35
          inv.  90 deg rotation - cart. axis [0,0,-1]            
     6s_d    29   30   38   37   34   33
          inv. 180 deg rotation - cart. axis [1,1,0]             

   Cartesian axes

     site n.     atom                  positions (alat units)
         1           Fe  tau(   1) = (   0.0000000   0.0000000   0.0000000  )
         2           Ti  tau(   2) = (   0.5000000   0.5000000   0.5000000  )

   Crystallographic axes

     site n.     atom                  positions (cryst. coord.)
         1           Fe  tau(   1) = (  0.0000000  0.0000000  0.0000000  )
         2           Ti  tau(   2) = (  0.5000000  0.5000000  0.5000000  )

     number of k points=   120  Fermi-Dirac smearing, width (Ry)=  0.0100
                       cart. coord. in units 2pi/alat
        k(    1) = (   0.0312500   0.0312500   0.0312500), wk =   0.0039062
        k(    2) = (   0.0312500   0.0312500   0.0937500), wk =   0.0117188
        k(    3) = (   0.0312500   0.0312500   0.1562500), wk =   0.0117188
        k(    4) = (   0.0312500   0.0312500   0.2187500), wk =   0.0117188
        k(    5) = (   0.0312500   0.0312500   0.2812500), wk =   0.0117188
        k(    6) = (   0.0312500   0.0312500   0.3437500), wk =   0.0117188
        k(    7) = (   0.0312500   0.0312500   0.4062500), wk =   0.0117188
        k(    8) = (   0.0312500   0.0312500   0.4687500), wk =   0.0117188
        k(    9) = (   0.0312500   0.0937500   0.0937500), wk =   0.0117188
        k(   10) = (   0.0312500   0.0937500   0.1562500), wk =   0.0234375
        k(   11) = (   0.0312500   0.0937500   0.2187500), wk =   0.0234375
        k(   12) = (   0.0312500   0.0937500   0.2812500), wk =   0.0234375
        k(   13) = (   0.0312500   0.0937500   0.3437500), wk =   0.0234375
        k(   14) = (   0.0312500   0.0937500   0.4062500), wk =   0.0234375
        k(   15) = (   0.0312500   0.0937500   0.4687500), wk =   0.0234375
        k(   16) = (   0.0312500   0.1562500   0.1562500), wk =   0.0117188
        k(   17) = (   0.0312500   0.1562500   0.2187500), wk =   0.0234375
        k(   18) = (   0.0312500   0.1562500   0.2812500), wk =   0.0234375
        k(   19) = (   0.0312500   0.1562500   0.3437500), wk =   0.0234375
        k(   20) = (   0.0312500   0.1562500   0.4062500), wk =   0.0234375
        k(   21) = (   0.0312500   0.1562500   0.4687500), wk =   0.0234375
        k(   22) = (   0.0312500   0.2187500   0.2187500), wk =   0.0117188
        k(   23) = (   0.0312500   0.2187500   0.2812500), wk =   0.0234375
        k(   24) = (   0.0312500   0.2187500   0.3437500), wk =   0.0234375
        k(   25) = (   0.0312500   0.2187500   0.4062500), wk =   0.0234375
        k(   26) = (   0.0312500   0.2187500   0.4687500), wk =   0.0234375
        k(   27) = (   0.0312500   0.2812500   0.2812500), wk =   0.0117188
        k(   28) = (   0.0312500   0.2812500   0.3437500), wk =   0.0234375
        k(   29) = (   0.0312500   0.2812500   0.4062500), wk =   0.0234375
        k(   30) = (   0.0312500   0.2812500   0.4687500), wk =   0.0234375
        k(   31) = (   0.0312500   0.3437500   0.3437500), wk =   0.0117188
        k(   32) = (   0.0312500   0.3437500   0.4062500), wk =   0.0234375
        k(   33) = (   0.0312500   0.3437500   0.4687500), wk =   0.0234375
        k(   34) = (   0.0312500   0.4062500   0.4062500), wk =   0.0117188
        k(   35) = (   0.0312500   0.4062500   0.4687500), wk =   0.0234375
        k(   36) = (   0.0312500   0.4687500   0.4687500), wk =   0.0117188
        k(   37) = (   0.0937500   0.0937500   0.0937500), wk =   0.0039062
        k(   38) = (   0.0937500   0.0937500   0.1562500), wk =   0.0117188
        k(   39) = (   0.0937500   0.0937500   0.2187500), wk =   0.0117188
        k(   40) = (   0.0937500   0.0937500   0.2812500), wk =   0.0117188
        k(   41) = (   0.0937500   0.0937500   0.3437500), wk =   0.0117188
        k(   42) = (   0.0937500   0.0937500   0.4062500), wk =   0.0117188
        k(   43) = (   0.0937500   0.0937500   0.4687500), wk =   0.0117188
        k(   44) = (   0.0937500   0.1562500   0.1562500), wk =   0.0117188
        k(   45) = (   0.0937500   0.1562500   0.2187500), wk =   0.0234375
        k(   46) = (   0.0937500   0.1562500   0.2812500), wk =   0.0234375
        k(   47) = (   0.0937500   0.1562500   0.3437500), wk =   0.0234375
        k(   48) = (   0.0937500   0.1562500   0.4062500), wk =   0.0234375
        k(   49) = (   0.0937500   0.1562500   0.4687500), wk =   0.0234375
        k(   50) = (   0.0937500   0.2187500   0.2187500), wk =   0.0117188
        k(   51) = (   0.0937500   0.2187500   0.2812500), wk =   0.0234375
        k(   52) = (   0.0937500   0.2187500   0.3437500), wk =   0.0234375
        k(   53) = (   0.0937500   0.2187500   0.4062500), wk =   0.0234375
        k(   54) = (   0.0937500   0.2187500   0.4687500), wk =   0.0234375
        k(   55) = (   0.0937500   0.2812500   0.2812500), wk =   0.0117188
        k(   56) = (   0.0937500   0.2812500   0.3437500), wk =   0.0234375
        k(   57) = (   0.0937500   0.2812500   0.4062500), wk =   0.0234375
        k(   58) = (   0.0937500   0.2812500   0.4687500), wk =   0.0234375
        k(   59) = (   0.0937500   0.3437500   0.3437500), wk =   0.0117188
        k(   60) = (   0.0937500   0.3437500   0.4062500), wk =   0.0234375
        k(   61) = (   0.0937500   0.3437500   0.4687500), wk =   0.0234375
        k(   62) = (   0.0937500   0.4062500   0.4062500), wk =   0.0117188
        k(   63) = (   0.0937500   0.4062500   0.4687500), wk =   0.0234375
        k(   64) = (   0.0937500   0.4687500   0.4687500), wk =   0.0117188
        k(   65) = (   0.1562500   0.1562500   0.1562500), wk =   0.0039062
        k(   66) = (   0.1562500   0.1562500   0.2187500), wk =   0.0117188
        k(   67) = (   0.1562500   0.1562500   0.2812500), wk =   0.0117188
        k(   68) = (   0.1562500   0.1562500   0.3437500), wk =   0.0117188
        k(   69) = (   0.1562500   0.1562500   0.4062500), wk =   0.0117188
        k(   70) = (   0.1562500   0.1562500   0.4687500), wk =   0.0117188
        k(   71) = (   0.1562500   0.2187500   0.2187500), wk =   0.0117188
        k(   72) = (   0.1562500   0.2187500   0.2812500), wk =   0.0234375
        k(   73) = (   0.1562500   0.2187500   0.3437500), wk =   0.0234375
        k(   74) = (   0.1562500   0.2187500   0.4062500), wk =   0.0234375
        k(   75) = (   0.1562500   0.2187500   0.4687500), wk =   0.0234375
        k(   76) = (   0.1562500   0.2812500   0.2812500), wk =   0.0117188
        k(   77) = (   0.1562500   0.2812500   0.3437500), wk =   0.0234375
        k(   78) = (   0.1562500   0.2812500   0.4062500), wk =   0.0234375
        k(   79) = (   0.1562500   0.2812500   0.4687500), wk =   0.0234375
        k(   80) = (   0.1562500   0.3437500   0.3437500), wk =   0.0117188
        k(   81) = (   0.1562500   0.3437500   0.4062500), wk =   0.0234375
        k(   82) = (   0.1562500   0.3437500   0.4687500), wk =   0.0234375
        k(   83) = (   0.1562500   0.4062500   0.4062500), wk =   0.0117188
        k(   84) = (   0.1562500   0.4062500   0.4687500), wk =   0.0234375
        k(   85) = (   0.1562500   0.4687500   0.4687500), wk =   0.0117188
        k(   86) = (   0.2187500   0.2187500   0.2187500), wk =   0.0039062
        k(   87) = (   0.2187500   0.2187500   0.2812500), wk =   0.0117188
        k(   88) = (   0.2187500   0.2187500   0.3437500), wk =   0.0117188
        k(   89) = (   0.2187500   0.2187500   0.4062500), wk =   0.0117188
        k(   90) = (   0.2187500   0.2187500   0.4687500), wk =   0.0117188
        k(   91) = (   0.2187500   0.2812500   0.2812500), wk =   0.0117188
        k(   92) = (   0.2187500   0.2812500   0.3437500), wk =   0.0234375
        k(   93) = (   0.2187500   0.2812500   0.4062500), wk =   0.0234375
        k(   94) = (   0.2187500   0.2812500   0.4687500), wk =   0.0234375
        k(   95) = (   0.2187500   0.3437500   0.3437500), wk =   0.0117188
        k(   96) = (   0.2187500   0.3437500   0.4062500), wk =   0.0234375
        k(   97) = (   0.2187500   0.3437500   0.4687500), wk =   0.0234375
        k(   98) = (   0.2187500   0.4062500   0.4062500), wk =   0.0117188
        k(   99) = (   0.2187500   0.4062500   0.4687500), wk =   0.0234375
        k(  100) = (   0.2187500   0.4687500   0.4687500), wk =   0.0117188
        k(  101) = (   0.2812500   0.2812500   0.2812500), wk =   0.0039062
        k(  102) = (   0.2812500   0.2812500   0.3437500), wk =   0.0117188
        k(  103) = (   0.2812500   0.2812500   0.4062500), wk =   0.0117188
        k(  104) = (   0.2812500   0.2812500   0.4687500), wk =   0.0117188
        k(  105) = (   0.2812500   0.3437500   0.3437500), wk =   0.0117188
        k(  106) = (   0.2812500   0.3437500   0.4062500), wk =   0.0234375
        k(  107) = (   0.2812500   0.3437500   0.4687500), wk =   0.0234375
        k(  108) = (   0.2812500   0.4062500   0.4062500), wk =   0.0117188
        k(  109) = (   0.2812500   0.4062500   0.4687500), wk =   0.0234375
        k(  110) = (   0.2812500   0.4687500   0.4687500), wk =   0.0117188
        k(  111) = (   0.3437500   0.3437500   0.3437500), wk =   0.0039062
        k(  112) = (   0.3437500   0.3437500   0.4062500), wk =   0.0117188
        k(  113) = (   0.3437500   0.3437500   0.4687500), wk =   0.0117188
        k(  114) = (   0.3437500   0.4062500   0.4062500), wk =   0.0117188
        k(  115) = (   0.3437500   0.4062500   0.4687500), wk =   0.0234375
        k(  116) = (   0.3437500   0.4687500   0.4687500), wk =   0.0117188
        k(  117) = (   0.4062500   0.4062500   0.4062500), wk =   0.0039062
        k(  118) = (   0.4062500   0.4062500   0.4687500), wk =   0.0117188
        k(  119) = (   0.4062500   0.4687500   0.4687500), wk =   0.0117188
        k(  120) = (   0.4687500   0.4687500   0.4687500), wk =   0.0039062

                       cryst. coord.
        k(    1) = (   0.0312500   0.0312500   0.0312500), wk =   0.0039062
        k(    2) = (   0.0312500   0.0312500   0.0937500), wk =   0.0117188
        k(    3) = (   0.0312500   0.0312500   0.1562500), wk =   0.0117188
        k(    4) = (   0.0312500   0.0312500   0.2187500), wk =   0.0117188
        k(    5) = (   0.0312500   0.0312500   0.2812500), wk =   0.0117188
        k(    6) = (   0.0312500   0.0312500   0.3437500), wk =   0.0117188
        k(    7) = (   0.0312500   0.0312500   0.4062500), wk =   0.0117188
        k(    8) = (   0.0312500   0.0312500   0.4687500), wk =   0.0117188
        k(    9) = (   0.0312500   0.0937500   0.0937500), wk =   0.0117188
        k(   10) = (   0.0312500   0.0937500   0.1562500), wk =   0.0234375
        k(   11) = (   0.0312500   0.0937500   0.2187500), wk =   0.0234375
        k(   12) = (   0.0312500   0.0937500   0.2812500), wk =   0.0234375
        k(   13) = (   0.0312500   0.0937500   0.3437500), wk =   0.0234375
        k(   14) = (   0.0312500   0.0937500   0.4062500), wk =   0.0234375
        k(   15) = (   0.0312500   0.0937500   0.4687500), wk =   0.0234375
        k(   16) = (   0.0312500   0.1562500   0.1562500), wk =   0.0117188
        k(   17) = (   0.0312500   0.1562500   0.2187500), wk =   0.0234375
        k(   18) = (   0.0312500   0.1562500   0.2812500), wk =   0.0234375
        k(   19) = (   0.0312500   0.1562500   0.3437500), wk =   0.0234375
        k(   20) = (   0.0312500   0.1562500   0.4062500), wk =   0.0234375
        k(   21) = (   0.0312500   0.1562500   0.4687500), wk =   0.0234375
        k(   22) = (   0.0312500   0.2187500   0.2187500), wk =   0.0117188
        k(   23) = (   0.0312500   0.2187500   0.2812500), wk =   0.0234375
        k(   24) = (   0.0312500   0.2187500   0.3437500), wk =   0.0234375
        k(   25) = (   0.0312500   0.2187500   0.4062500), wk =   0.0234375
        k(   26) = (   0.0312500   0.2187500   0.4687500), wk =   0.0234375
        k(   27) = (   0.0312500   0.2812500   0.2812500), wk =   0.0117188
        k(   28) = (   0.0312500   0.2812500   0.3437500), wk =   0.0234375
        k(   29) = (   0.0312500   0.2812500   0.4062500), wk =   0.0234375
        k(   30) = (   0.0312500   0.2812500   0.4687500), wk =   0.0234375
        k(   31) = (   0.0312500   0.3437500   0.3437500), wk =   0.0117188
        k(   32) = (   0.0312500   0.3437500   0.4062500), wk =   0.0234375
        k(   33) = (   0.0312500   0.3437500   0.4687500), wk =   0.0234375
        k(   34) = (   0.0312500   0.4062500   0.4062500), wk =   0.0117188
        k(   35) = (   0.0312500   0.4062500   0.4687500), wk =   0.0234375
        k(   36) = (   0.0312500   0.4687500   0.4687500), wk =   0.0117188
        k(   37) = (   0.0937500   0.0937500   0.0937500), wk =   0.0039062
        k(   38) = (   0.0937500   0.0937500   0.1562500), wk =   0.0117188
        k(   39) = (   0.0937500   0.0937500   0.2187500), wk =   0.0117188
        k(   40) = (   0.0937500   0.0937500   0.2812500), wk =   0.0117188
        k(   41) = (   0.0937500   0.0937500   0.3437500), wk =   0.0117188
        k(   42) = (   0.0937500   0.0937500   0.4062500), wk =   0.0117188
        k(   43) = (   0.0937500   0.0937500   0.4687500), wk =   0.0117188
        k(   44) = (   0.0937500   0.1562500   0.1562500), wk =   0.0117188
        k(   45) = (   0.0937500   0.1562500   0.2187500), wk =   0.0234375
        k(   46) = (   0.0937500   0.1562500   0.2812500), wk =   0.0234375
        k(   47) = (   0.0937500   0.1562500   0.3437500), wk =   0.0234375
        k(   48) = (   0.0937500   0.1562500   0.4062500), wk =   0.0234375
        k(   49) = (   0.0937500   0.1562500   0.4687500), wk =   0.0234375
        k(   50) = (   0.0937500   0.2187500   0.2187500), wk =   0.0117188
        k(   51) = (   0.0937500   0.2187500   0.2812500), wk =   0.0234375
        k(   52) = (   0.0937500   0.2187500   0.3437500), wk =   0.0234375
        k(   53) = (   0.0937500   0.2187500   0.4062500), wk =   0.0234375
        k(   54) = (   0.0937500   0.2187500   0.4687500), wk =   0.0234375
        k(   55) = (   0.0937500   0.2812500   0.2812500), wk =   0.0117188
        k(   56) = (   0.0937500   0.2812500   0.3437500), wk =   0.0234375
        k(   57) = (   0.0937500   0.2812500   0.4062500), wk =   0.0234375
        k(   58) = (   0.0937500   0.2812500   0.4687500), wk =   0.0234375
        k(   59) = (   0.0937500   0.3437500   0.3437500), wk =   0.0117188
        k(   60) = (   0.0937500   0.3437500   0.4062500), wk =   0.0234375
        k(   61) = (   0.0937500   0.3437500   0.4687500), wk =   0.0234375
        k(   62) = (   0.0937500   0.4062500   0.4062500), wk =   0.0117188
        k(   63) = (   0.0937500   0.4062500   0.4687500), wk =   0.0234375
        k(   64) = (   0.0937500   0.4687500   0.4687500), wk =   0.0117188
        k(   65) = (   0.1562500   0.1562500   0.1562500), wk =   0.0039062
        k(   66) = (   0.1562500   0.1562500   0.2187500), wk =   0.0117188
        k(   67) = (   0.1562500   0.1562500   0.2812500), wk =   0.0117188
        k(   68) = (   0.1562500   0.1562500   0.3437500), wk =   0.0117188
        k(   69) = (   0.1562500   0.1562500   0.4062500), wk =   0.0117188
        k(   70) = (   0.1562500   0.1562500   0.4687500), wk =   0.0117188
        k(   71) = (   0.1562500   0.2187500   0.2187500), wk =   0.0117188
        k(   72) = (   0.1562500   0.2187500   0.2812500), wk =   0.0234375
        k(   73) = (   0.1562500   0.2187500   0.3437500), wk =   0.0234375
        k(   74) = (   0.1562500   0.2187500   0.4062500), wk =   0.0234375
        k(   75) = (   0.1562500   0.2187500   0.4687500), wk =   0.0234375
        k(   76) = (   0.1562500   0.2812500   0.2812500), wk =   0.0117188
        k(   77) = (   0.1562500   0.2812500   0.3437500), wk =   0.0234375
        k(   78) = (   0.1562500   0.2812500   0.4062500), wk =   0.0234375
        k(   79) = (   0.1562500   0.2812500   0.4687500), wk =   0.0234375
        k(   80) = (   0.1562500   0.3437500   0.3437500), wk =   0.0117188
        k(   81) = (   0.1562500   0.3437500   0.4062500), wk =   0.0234375
        k(   82) = (   0.1562500   0.3437500   0.4687500), wk =   0.0234375
        k(   83) = (   0.1562500   0.4062500   0.4062500), wk =   0.0117188
        k(   84) = (   0.1562500   0.4062500   0.4687500), wk =   0.0234375
        k(   85) = (   0.1562500   0.4687500   0.4687500), wk =   0.0117188
        k(   86) = (   0.2187500   0.2187500   0.2187500), wk =   0.0039062
        k(   87) = (   0.2187500   0.2187500   0.2812500), wk =   0.0117188
        k(   88) = (   0.2187500   0.2187500   0.3437500), wk =   0.0117188
        k(   89) = (   0.2187500   0.2187500   0.4062500), wk =   0.0117188
        k(   90) = (   0.2187500   0.2187500   0.4687500), wk =   0.0117188
        k(   91) = (   0.2187500   0.2812500   0.2812500), wk =   0.0117188
        k(   92) = (   0.2187500   0.2812500   0.3437500), wk =   0.0234375
        k(   93) = (   0.2187500   0.2812500   0.4062500), wk =   0.0234375
        k(   94) = (   0.2187500   0.2812500   0.4687500), wk =   0.0234375
        k(   95) = (   0.2187500   0.3437500   0.3437500), wk =   0.0117188
        k(   96) = (   0.2187500   0.3437500   0.4062500), wk =   0.0234375
        k(   97) = (   0.2187500   0.3437500   0.4687500), wk =   0.0234375
        k(   98) = (   0.2187500   0.4062500   0.4062500), wk =   0.0117188
        k(   99) = (   0.2187500   0.4062500   0.4687500), wk =   0.0234375
        k(  100) = (   0.2187500   0.4687500   0.4687500), wk =   0.0117188
        k(  101) = (   0.2812500   0.2812500   0.2812500), wk =   0.0039062
        k(  102) = (   0.2812500   0.2812500   0.3437500), wk =   0.0117188
        k(  103) = (   0.2812500   0.2812500   0.4062500), wk =   0.0117188
        k(  104) = (   0.2812500   0.2812500   0.4687500), wk =   0.0117188
        k(  105) = (   0.2812500   0.3437500   0.3437500), wk =   0.0117188
        k(  106) = (   0.2812500   0.3437500   0.4062500), wk =   0.0234375
        k(  107) = (   0.2812500   0.3437500   0.4687500), wk =   0.0234375
        k(  108) = (   0.2812500   0.4062500   0.4062500), wk =   0.0117188
        k(  109) = (   0.2812500   0.4062500   0.4687500), wk =   0.0234375
        k(  110) = (   0.2812500   0.4687500   0.4687500), wk =   0.0117188
        k(  111) = (   0.3437500   0.3437500   0.3437500), wk =   0.0039062
        k(  112) = (   0.3437500   0.3437500   0.4062500), wk =   0.0117188
        k(  113) = (   0.3437500   0.3437500   0.4687500), wk =   0.0117188
        k(  114) = (   0.3437500   0.4062500   0.4062500), wk =   0.0117188
        k(  115) = (   0.3437500   0.4062500   0.4687500), wk =   0.0234375
        k(  116) = (   0.3437500   0.4687500   0.4687500), wk =   0.0117188
        k(  117) = (   0.4062500   0.4062500   0.4062500), wk =   0.0039062
        k(  118) = (   0.4062500   0.4062500   0.4687500), wk =   0.0117188
        k(  119) = (   0.4062500   0.4687500   0.4687500), wk =   0.0117188
        k(  120) = (   0.4687500   0.4687500   0.4687500), wk =   0.0039062

     Dense  grid:     8385 G-vectors     FFT dimensions: (  25,  25,  25)

     Dynamical RAM for                 wfc:       0.22 MB

     Dynamical RAM for     wfc (w. buffer):       0.22 MB

     Dynamical RAM for           str. fact:       0.26 MB

     Dynamical RAM for           local pot:       0.00 MB

     Dynamical RAM for          nlocal pot:       0.58 MB

     Dynamical RAM for                qrad:       2.03 MB

     Dynamical RAM for          rho,v,vnew:       0.74 MB

     Dynamical RAM for           G-vectors:       0.54 MB

     Dynamical RAM for          h,s,v(r/c):       0.01 MB

     Dynamical RAM for          <psi|beta>:       0.01 MB

     Dynamical RAM for      wfcinit/wfcrot:       0.52 MB

     Dynamical RAM for           addusdens:      23.93 MB

     Estimated static dynamical RAM per process >       5.35 MB

     Estimated max dynamical RAM per process >      29.27 MB

     Check: negative/imaginary core charge=   -0.000056    0.000000

     The potential is recalculated from file :
     ./1.save/charge-density.dat

     Starting wfcs are   16 randomized atomic wfcs

     Band Structure Calculation
     CG style diagonalization

     Computing kpt #:     1
     c_bands:  1 eigenvalues not converged
     total cpu time spent up to now is        1.8 secs

     Computing kpt #:     2
     c_bands:  1 eigenvalues not converged
     total cpu time spent up to now is        2.6 secs

     Computing kpt #:     3
     total cpu time spent up to now is        3.3 secs

     Computing kpt #:     4
     total cpu time spent up to now is        4.0 secs

     Computing kpt #:     5
     total cpu time spent up to now is        4.6 secs

     Computing kpt #:     6
     total cpu time spent up to now is        5.3 secs

     Computing kpt #:     7
     total cpu time spent up to now is        5.9 secs

     Computing kpt #:     8
     total cpu time spent up to now is        6.5 secs

     Computing kpt #:     9
     total cpu time spent up to now is        7.2 secs

     Computing kpt #:    10
     total cpu time spent up to now is        7.9 secs

     Computing kpt #:    11
     total cpu time spent up to now is        8.6 secs

     Computing kpt #:    12
     total cpu time spent up to now is        9.2 secs

     Computing kpt #:    13
     total cpu time spent up to now is        9.9 secs

     Computing kpt #:    14
     total cpu time spent up to now is       10.6 secs

     Computing kpt #:    15
     total cpu time spent up to now is       11.3 secs

     Computing kpt #:    16
     total cpu time spent up to now is       11.9 secs

     Computing kpt #:    17
     total cpu time spent up to now is       12.6 secs

     Computing kpt #:    18
     total cpu time spent up to now is       13.2 secs

     Computing kpt #:    19
     total cpu time spent up to now is       13.9 secs

     Computing kpt #:    20
     total cpu time spent up to now is       14.6 secs

     Computing kpt #:    21
     total cpu time spent up to now is       15.3 secs

     Computing kpt #:    22
     total cpu time spent up to now is       15.9 secs

     Computing kpt #:    23
     total cpu time spent up to now is       16.6 secs

     Computing kpt #:    24
     total cpu time spent up to now is       17.3 secs

     Computing kpt #:    25
     total cpu time spent up to now is       18.1 secs

     Computing kpt #:    26
     total cpu time spent up to now is       18.9 secs

     Computing kpt #:    27
     total cpu time spent up to now is       19.5 secs

     Computing kpt #:    28
     total cpu time spent up to now is       20.3 secs

     Computing kpt #:    29
     total cpu time spent up to now is       21.1 secs

     Computing kpt #:    30
     total cpu time spent up to now is       21.9 secs

     Computing kpt #:    31
     total cpu time spent up to now is       22.6 secs

     Computing kpt #:    32
     c_bands:  1 eigenvalues not converged
     total cpu time spent up to now is       23.5 secs

     Computing kpt #:    33
     c_bands:  1 eigenvalues not converged
     total cpu time spent up to now is       24.3 secs

     Computing kpt #:    34
     c_bands:  1 eigenvalues not converged
     total cpu time spent up to now is       25.2 secs

     Computing kpt #:    35
     c_bands:  1 eigenvalues not converged
     total cpu time spent up to now is       26.0 secs

     Computing kpt #:    36
     c_bands:  1 eigenvalues not converged
     total cpu time spent up to now is       26.9 secs

     Computing kpt #:    37
     total cpu time spent up to now is       27.5 secs

     Computing kpt #:    38
     total cpu time spent up to now is       28.3 secs

     Computing kpt #:    39
     total cpu time spent up to now is       28.9 secs

     Computing kpt #:    40
     total cpu time spent up to now is       29.6 secs

     Computing kpt #:    41
     total cpu time spent up to now is       30.2 secs

     Computing kpt #:    42
     total cpu time spent up to now is       30.9 secs

     Computing kpt #:    43
     total cpu time spent up to now is       31.6 secs

     Computing kpt #:    44
     total cpu time spent up to now is       32.3 secs

     Computing kpt #:    45
     total cpu time spent up to now is       33.0 secs

     Computing kpt #:    46
     total cpu time spent up to now is       33.7 secs

     Computing kpt #:    47
     total cpu time spent up to now is       34.4 secs

     Computing kpt #:    48
     total cpu time spent up to now is       35.2 secs

     Computing kpt #:    49
     total cpu time spent up to now is       36.1 secs

     Computing kpt #:    50
     total cpu time spent up to now is       36.7 secs

     Computing kpt #:    51
     total cpu time spent up to now is       37.4 secs

     Computing kpt #:    52
     total cpu time spent up to now is       38.1 secs

     Computing kpt #:    53
     total cpu time spent up to now is       38.9 secs

     Computing kpt #:    54
     c_bands:  1 eigenvalues not converged
     total cpu time spent up to now is       39.7 secs

     Computing kpt #:    55
     total cpu time spent up to now is       40.4 secs

     Computing kpt #:    56
     total cpu time spent up to now is       41.2 secs

     Computing kpt #:    57
     c_bands:  1 eigenvalues not converged
     total cpu time spent up to now is       42.0 secs

     Computing kpt #:    58
     total cpu time spent up to now is       42.8 secs

     Computing kpt #:    59
     c_bands:  1 eigenvalues not converged
     total cpu time spent up to now is       43.6 secs

     Computing kpt #:    60
     c_bands:  1 eigenvalues not converged
     total cpu time spent up to now is       44.5 secs

     Computing kpt #:    61
     total cpu time spent up to now is       45.2 secs

     Computing kpt #:    62
     total cpu time spent up to now is       46.0 secs

     Computing kpt #:    63
     total cpu time spent up to now is       46.8 secs

     Computing kpt #:    64
     total cpu time spent up to now is       47.6 secs

     Computing kpt #:    65
     total cpu time spent up to now is       48.2 secs

     Computing kpt #:    66
     total cpu time spent up to now is       48.9 secs

     Computing kpt #:    67
     total cpu time spent up to now is       49.6 secs

     Computing kpt #:    68
     total cpu time spent up to now is       50.3 secs

     Computing kpt #:    69
     total cpu time spent up to now is       51.1 secs

     Computing kpt #:    70
     c_bands:  1 eigenvalues not converged
     total cpu time spent up to now is       51.9 secs

     Computing kpt #:    71
     total cpu time spent up to now is       52.6 secs

     Computing kpt #:    72
     total cpu time spent up to now is       53.3 secs

     Computing kpt #:    73
     c_bands:  1 eigenvalues not converged
     total cpu time spent up to now is       54.2 secs

     Computing kpt #:    74
     c_bands:  1 eigenvalues not converged
     total cpu time spent up to now is       55.0 secs

     Computing kpt #:    75
     total cpu time spent up to now is       55.7 secs

     Computing kpt #:    76
     c_bands:  1 eigenvalues not converged
     total cpu time spent up to now is       56.5 secs

     Computing kpt #:    77
     c_bands:  1 eigenvalues not converged
     total cpu time spent up to now is       57.4 secs

     Computing kpt #:    78
     total cpu time spent up to now is       58.2 secs

     Computing kpt #:    79
     total cpu time spent up to now is       58.9 secs

     Computing kpt #:    80
     total cpu time spent up to now is       59.6 secs

     Computing kpt #:    81
     total cpu time spent up to now is       60.4 secs

     Computing kpt #:    82
     total cpu time spent up to now is       61.1 secs

     Computing kpt #:    83
     total cpu time spent up to now is       61.8 secs

     Computing kpt #:    84
     total cpu time spent up to now is       62.4 secs

     Computing kpt #:    85
     total cpu time spent up to now is       63.1 secs

     Computing kpt #:    86
     total cpu time spent up to now is       64.0 secs

     Computing kpt #:    87
     c_bands:  1 eigenvalues not converged
     total cpu time spent up to now is       64.8 secs

     Computing kpt #:    88
     total cpu time spent up to now is       65.7 secs

     Computing kpt #:    89
     total cpu time spent up to now is       66.4 secs

     Computing kpt #:    90
     total cpu time spent up to now is       67.0 secs

     Computing kpt #:    91
     total cpu time spent up to now is       67.8 secs

     Computing kpt #:    92
     total cpu time spent up to now is       68.5 secs

     Computing kpt #:    93
     total cpu time spent up to now is       69.1 secs

     Computing kpt #:    94
     total cpu time spent up to now is       69.7 secs

     Computing kpt #:    95
     total cpu time spent up to now is       70.3 secs

     Computing kpt #:    96
     total cpu time spent up to now is       71.0 secs

     Computing kpt #:    97
     total cpu time spent up to now is       71.6 secs

     Computing kpt #:    98
     total cpu time spent up to now is       72.3 secs

     Computing kpt #:    99
     total cpu time spent up to now is       72.9 secs

     Computing kpt #:   100
     total cpu time spent up to now is       73.5 secs

     Computing kpt #:   101
     total cpu time spent up to now is       74.2 secs

     Computing kpt #:   102
     total cpu time spent up to now is       74.8 secs

     Computing kpt #:   103
     total cpu time spent up to now is       75.5 secs

     Computing kpt #:   104
     total cpu time spent up to now is       76.1 secs

     Computing kpt #:   105
     total cpu time spent up to now is       76.7 secs

     Computing kpt #:   106
     total cpu time spent up to now is       77.4 secs

     Computing kpt #:   107
     total cpu time spent up to now is       78.0 secs

     Computing kpt #:   108
     total cpu time spent up to now is       78.6 secs

     Computing kpt #:   109
     total cpu time spent up to now is       79.2 secs

     Computing kpt #:   110
     total cpu time spent up to now is       79.9 secs

     Computing kpt #:   111
     total cpu time spent up to now is       80.5 secs

     Computing kpt #:   112
     total cpu time spent up to now is       81.1 secs

     Computing kpt #:   113
     total cpu time spent up to now is       81.7 secs

     Computing kpt #:   114
     total cpu time spent up to now is       82.4 secs

     Computing kpt #:   115
     total cpu time spent up to now is       83.0 secs

     Computing kpt #:   116
     total cpu time spent up to now is       83.7 secs

     Computing kpt #:   117
     total cpu time spent up to now is       84.3 secs

     Computing kpt #:   118
     total cpu time spent up to now is       84.9 secs

     Computing kpt #:   119
     total cpu time spent up to now is       85.5 secs

     Computing kpt #:   120
     total cpu time spent up to now is       86.1 secs

     ethr =  5.13E-12,  avg # of iterations = 55.5

     total cpu time spent up to now is       86.1 secs

     End of band structure calculation

          k = 0.0312 0.0312 0.0312 (  1027 PWs)   bands (ev):

   -41.7209 -18.1141 -18.1132 -18.1132   7.6511  11.0880  11.0880  13.6861
    13.6861  13.7269  15.8769  15.8769  17.6645  17.7586

     occupation numbers 
     1.0000   1.0000   1.0000   1.0000   1.0000   1.0000   1.0000   0.9624
     0.9624   0.9499   0.0000   0.0000   0.0000   0.0000

          k = 0.0312 0.0312 0.0938 (  1031 PWs)   bands (ev):

   -41.7182 -18.1385 -18.1121 -18.1115   7.8098  11.1605  11.1700  13.6591
    13.6747  13.7751  15.7894  15.9137  17.4306  17.5458

     occupation numbers 
     1.0000   1.0000   1.0000   1.0000   1.0000   1.0000   1.0000   0.9690
     0.9653   0.9301   0.0000   0.0000   0.0000   0.0000

          k = 0.0312 0.0312 0.1562 (  1042 PWs)   bands (ev):

   -41.7131 -18.1844 -18.1089 -18.1085   8.1197  11.3028  11.3194  13.6345
    13.6554  13.8421  15.6192  15.9752  17.0831  17.1889

     occupation numbers 
     1.0000   1.0000   1.0000   1.0000   1.0000   1.0000   1.0000   0.9740
     0.9698   0.8905   0.0000   0.0000   0.0000   0.0000

          k = 0.0312 0.0312 0.2188 (  1042 PWs)   bands (ev):

   -41.7065 -18.2439 -18.1048 -18.1045   8.5660  11.5064  11.5087  13.6155
    13.6340  13.9239  15.3762  16.0322  16.6920  16.7730

     occupation numbers 
     1.0000   1.0000   1.0000   1.0000   1.0000   1.0000   1.0000   0.9773
     0.9740   0.8168   0.0001   0.0000   0.0000   0.0000

          k = 0.0312 0.0312 0.2812 (  1054 PWs)   bands (ev):

   -41.6994 -18.3078 -18.1004 -18.1002   9.1250  11.6861  11.7676  13.6069
    13.6160  14.0100  15.0777  16.0204  16.3386  16.3660

     occupation numbers 
     1.0000   1.0000   1.0000   1.0000   1.0000   1.0000   1.0000   0.9786
     0.9772   0.7031   0.0009   0.0000   0.0000   0.0000

          k = 0.0312 0.0312 0.3438 (  1053 PWs)   bands (ev):

   -41.6927 -18.3663 -18.0963 -18.0962   9.7609  11.7989  12.0603  13.6027
    13.6125  14.0858  14.7518  15.8415  16.0162  16.1117

     occupation numbers 
     1.0000   1.0000   1.0000   1.0000   1.0000   1.0000   1.0000   0.9793
     0.9778   0.5756   0.0101   0.0000   0.0000   0.0000

          k = 0.0312 0.0312 0.4062 (  1056 PWs)   bands (ev):

   -41.6876 -18.4108 -18.0931 -18.0931  10.4183  11.7734  12.3499  13.5880
    13.6301  14.1376  14.4473  15.5966  15.7593  15.9381

     occupation numbers 
     1.0000   1.0000   1.0000   1.0000   1.0000   1.0000   1.0000   0.9814
     0.9748   0.4810   0.0869   0.0000   0.0000   0.0000

          k = 0.0312 0.0312 0.4688 (  1046 PWs)   bands (ev):

   -41.6849 -18.4348 -18.0915 -18.0914  10.9972  11.5642  12.5560  13.5665
    13.6478  14.1612  14.2495  15.4255  15.6226  15.8201

     occupation numbers 
     1.0000   1.0000   1.0000   1.0000   1.0000   1.0000   1.0000   0.9840
     0.9714   0.4379   0.2894   0.0001   0.0000   0.0000

          k = 0.0312 0.0938 0.0938 (  1043 PWs)   bands (ev):

   -41.7155 -18.1392 -18.1341 -18.1101   7.9654  11.2320  11.2502  13.6018
    13.6532  13.8469  15.7784  15.8912  17.1695  17.3959

     occupation numbers 
     1.0000   1.0000   1.0000   1.0000   1.0000   1.0000   1.0000   0.9794
     0.9702   0.8870   0.0000   0.0000   0.0000   0.0000

          k = 0.0312 0.0938 0.1562 (  1043 PWs)   bands (ev):

   -41.7105 -18.1825 -18.1329 -18.1069   8.2691  11.3636  11.4038  13.5449
    13.6228  13.9232  15.6532  15.9403  16.8359  17.0639

     occupation numbers 
     1.0000   1.0000   1.0000   1.0000   1.0000   1.0000   1.0000   0.9863
     0.9761   0.8175   0.0000   0.0000   0.0000   0.0000

          k = 0.0312 0.0938 0.2188 (  1046 PWs)   bands (ev):

   -41.7039 -18.2414 -18.1285 -18.1027   8.7051  11.5443  11.6046  13.5031
    13.5868  13.9873  15.4472  15.9998  16.4987  16.6814

     occupation numbers 
     1.0000   1.0000   1.0000   1.0000   1.0000   1.0000   1.0000   0.9899
     0.9815   0.7367   0.0001   0.0000   0.0000   0.0000

          k = 0.0312 0.0938 0.2812 (  1047 PWs)   bands (ev):

   -41.6968 -18.3048 -18.1237 -18.0982   9.2488  11.7308  11.8384  13.4826
    13.5518  14.0230  15.1925  15.9348  16.2820  16.3352

     occupation numbers 
     1.0000   1.0000   1.0000   1.0000   1.0000   1.0000   1.0000   0.9913
     0.9856   0.6827   0.0004   0.0000   0.0000   0.0000

          k = 0.0312 0.0938 0.3438 (  1052 PWs)   bands (ev):

   -41.6903 -18.3629 -18.1192 -18.0940   9.8633  11.8431  12.1042  13.4799
    13.5279  14.0190  14.9203  15.6869  16.0749  16.2279

     occupation numbers 
     1.0000   1.0000   1.0000   1.0000   1.0000   1.0000   1.0000   0.9915
     0.9879   0.6890   0.0029   0.0000   0.0000   0.0000

          k = 0.0312 0.0938 0.4062 (  1052 PWs)   bands (ev):

   -41.6852 -18.4070 -18.1158 -18.0908  10.4925  11.8106  12.3685  13.4579
    13.5460  13.9821  14.6808  15.4345  15.8989  16.1789

     occupation numbers 
     1.0000   1.0000   1.0000   1.0000   1.0000   1.0000   1.0000   0.9928
     0.9862   0.7440   0.0168   0.0001   0.0000   0.0000

          k = 0.0312 0.0938 0.4688 (  1055 PWs)   bands (ev):

   -41.6825 -18.4308 -18.1140 -18.0891  11.0386  11.6051  12.5554  13.4193
    13.5832  13.9431  14.5403  15.2684  15.7972  16.1422

     occupation numbers 
     1.0000   1.0000   1.0000   1.0000   1.0000   1.0000   1.0000   0.9945
     0.9820   0.7948   0.0458   0.0002   0.0000   0.0000

          k = 0.0312 0.1562 0.1562 (  1045 PWs)   bands (ev):

   -41.7056 -18.1837 -18.1725 -18.1035   8.5593  11.4699  11.5686  13.4466
    13.5740  13.9905  15.6582  15.9217  16.5377  16.7864

     occupation numbers 
     1.0000   1.0000   1.0000   1.0000   1.0000   1.0000   1.0000   0.9933
     0.9831   0.7321   0.0000   0.0000   0.0000   0.0000

          k = 0.0312 0.1562 0.2188 (  1048 PWs)   bands (ev):

   -41.6991 -18.2371 -18.1721 -18.0991   8.9729  11.6095  11.7869  13.3666
    13.5185  14.0097  15.5536  15.9560  16.2552  16.5070

     occupation numbers 
     1.0000   1.0000   1.0000   1.0000   1.0000   1.0000   1.0000   0.9963
     0.9887   0.7036   0.0000   0.0000   0.0000   0.0000

          k = 0.0312 0.1562 0.2812 (  1047 PWs)   bands (ev):

   -41.6922 -18.2993 -18.1667 -18.0944   9.4825  11.7506  12.0299  13.3159
    13.4702  13.9648  15.3784  15.8004  16.1941  16.3303

     occupation numbers 
     1.0000   1.0000   1.0000   1.0000   1.0000   1.0000   1.0000   0.9974
     0.9921   0.7675   0.0001   0.0000   0.0000   0.0000

          k = 0.0312 0.1562 0.3438 (  1052 PWs)   bands (ev):

   -41.6857 -18.3565 -18.1616 -18.0900  10.0476  11.8364  12.2724  13.2986
    13.4469  13.8655  15.1775  15.5344  16.1882  16.3340

     occupation numbers 
     1.0000   1.0000   1.0000   1.0000   1.0000   1.0000   1.0000   0.9977
     0.9933   0.8726   0.0004   0.0000   0.0000   0.0000

          k = 0.0312 0.1562 0.4062 (  1054 PWs)   bands (ev):

   -41.6808 -18.4000 -18.1576 -18.0866  10.6102  11.7985  12.4878  13.3059
    13.4680  13.7453  15.0037  15.3044  16.1279  16.4275

     occupation numbers 
     1.0000   1.0000   1.0000   1.0000   1.0000   1.0000   1.0000   0.9976
     0.9922   0.9431   0.0016   0.0002   0.0000   0.0000

          k = 0.0312 0.1562 0.4688 (  1059 PWs)   bands (ev):

   -41.6781 -18.4234 -18.1554 -18.0848  11.0757  11.6233  12.6265  13.3174
    13.5210  13.6469  14.9223  15.1374  16.0776  16.4987

     occupation numbers 
     1.0000   1.0000   1.0000   1.0000   1.0000   1.0000   1.0000   0.9974
     0.9885   0.9715   0.0029   0.0006   0.0000   0.0000

          k = 0.0312 0.2188 0.2188 (  1052 PWs)   bands (ev):

   -41.6929 -18.2378 -18.2223 -18.0945   9.3483  11.6868  12.0303  13.2457
    13.4522  13.9511  15.6128  15.9692  15.9701  16.4039

     occupation numbers 
     1.0000   1.0000   1.0000   1.0000   1.0000   1.0000   1.0000   0.9985
     0.9930   0.7850   0.0000   0.0000   0.0000   0.0000

          k = 0.0312 0.2188 0.2812 (  1051 PWs)   bands (ev):

   -41.6861 -18.2924 -18.2223 -18.0894   9.7976  11.7495  12.3019  13.1575
    13.4156  13.8182  15.5703  15.6804  16.0841  16.4155

     occupation numbers 
     1.0000   1.0000   1.0000   1.0000   1.0000   1.0000   1.0000   0.9992
     0.9947   0.9065   0.0000   0.0000   0.0000   0.0000

          k = 0.0312 0.2188 0.3438 (  1050 PWs)   bands (ev):

   -41.6798 -18.3482 -18.2164 -18.0847  10.2739  11.7620  12.5584  13.1116
    13.4449  13.6481  15.4174  15.4901  16.2127  16.5260

     occupation numbers 
     1.0000   1.0000   1.0000   1.0000   1.0000   1.0000   1.0000   0.9994
     0.9934   0.9713   0.0001   0.0000   0.0000   0.0000

          k = 0.0312 0.2188 0.4062 (  1052 PWs)   bands (ev):

   -41.6749 -18.3908 -18.2118 -18.0811  10.7181  11.6950  12.7486  13.1120
    13.4734  13.5758  15.1978  15.4040  16.2883  16.7033

     occupation numbers 
     1.0000   1.0000   1.0000   1.0000   1.0000   1.0000   1.0000   0.9994
     0.9919   0.9829   0.0004   0.0001   0.0000   0.0000

          k = 0.0312 0.2188 0.4688 (  1062 PWs)   bands (ev):

   -41.6723 -18.4138 -18.2092 -18.0792  11.0492  11.5656  12.8430  13.1496
    13.3475  13.7228  15.0492  15.3385  16.3145  16.8587

     occupation numbers 
     1.0000   1.0000   1.0000   1.0000   1.0000   1.0000   0.9999   0.9992
     0.9968   0.9513   0.0011   0.0001   0.0000   0.0000

          k = 0.0312 0.2812 0.2812 (  1052 PWs)   bands (ev):

   -41.6794 -18.2911 -18.2757 -18.0840  10.1510  11.7186  12.6148  13.0313
    13.4292  13.6185  15.5399  15.7571  16.0274  16.5737

     occupation numbers 
     1.0000   1.0000   1.0000   1.0000   1.0000   1.0000   1.0000   0.9997
     0.9941   0.9768   0.0000   0.0000   0.0000   0.0000

          k = 0.0312 0.2812 0.3438 (  1052 PWs)   bands (ev):

   -41.6733 -18.3393 -18.2753 -18.0790  10.4911  11.6499  12.9128  12.9518
    13.4090  13.5587  15.4335  15.7474  16.1496  16.7759

     occupation numbers 
     1.0000   1.0000   1.0000   1.0000   1.0000   1.0000   0.9999   0.9998
     0.9949   0.9849   0.0001   0.0000   0.0000   0.0000

          k = 0.0312 0.2812 0.4062 (  1056 PWs)   bands (ev):

   -41.6686 -18.3808 -18.2700 -18.0751  10.7717  11.5503  12.9247  13.1074
    13.2382  13.8369  15.2506  15.7245  16.3217  16.9994

     occupation numbers 
     1.0000   1.0000   1.0000   1.0000   1.0000   1.0000   0.9999   0.9994
     0.9985   0.8942   0.0003   0.0000   0.0000   0.0000

          k = 0.0312 0.2812 0.4688 (  1059 PWs)   bands (ev):

   -41.6661 -18.4033 -18.2671 -18.0731  10.9507  11.4567  12.9529  13.0587
    13.2435  14.1507  15.0309  15.7205  16.4368  17.1959

     occupation numbers 
     1.0000   1.0000   1.0000   1.0000   1.0000   1.0000   0.9998   0.9996
     0.9985   0.4570   0.0013   0.0000   0.0000   0.0000

          k = 0.0312 0.3438 0.3438 (  1050 PWs)   bands (ev):

   -41.6673 -18.3356 -18.3247 -18.0737  10.6595  11.5243  12.8362  13.1829
    13.2881  13.7946  15.4798  15.9743  16.0759  17.0327

     occupation numbers 
     1.0000   1.0000   1.0000   1.0000   1.0000   1.0000   0.9999   0.9990
     0.9979   0.9202   0.0000   0.0000   0.0000   0.0000

          k = 0.0312 0.3438 0.4062 (  1052 PWs)   bands (ev):

   -41.6628 -18.3717 -18.3234 -18.0696  10.7690  11.4120  12.7788  12.9951
    13.5718  14.1741  15.4084  16.0010  16.2432  17.2764

     occupation numbers 
     1.0000   1.0000   1.0000   1.0000   1.0000   1.0000   1.0000   0.9998
     0.9834   0.4148   0.0001   0.0000   0.0000   0.0000

          k = 0.0312 0.3438 0.4688 (  1054 PWs)   bands (ev):

   -41.6603 -18.3937 -18.3201 -18.0674  10.8247  11.3427  12.7839  12.8621
    13.7033  14.6435  15.1155  16.0454  16.4074  17.4818

     occupation numbers 
     1.0000   1.0000   1.0000   1.0000   1.0000   1.0000   0.9999   0.9999
     0.9575   0.0220   0.0007   0.0000   0.0000   0.0000

          k = 0.0312 0.4062 0.4062 (  1048 PWs)   bands (ev):

   -41.6583 -18.3667 -18.3619 -18.0654  10.7404  11.3084  12.6893  12.8233
    13.9822  14.5161  15.6131  16.0740  16.2418  17.5112

     occupation numbers 
     1.0000   1.0000   1.0000   1.0000   1.0000   1.0000   1.0000   0.9999
     0.7438   0.0543   0.0000   0.0000   0.0000   0.0000

          k = 0.0312 0.4062 0.4688 (  1048 PWs)   bands (ev):

   -41.6559 -18.3862 -18.3604 -18.0631  10.7173  11.2538  12.6652  12.7113
    14.1930  14.8900  15.5023  16.1924  16.3053  17.6906

     occupation numbers 
     1.0000   1.0000   1.0000   1.0000   1.0000   1.0000   1.0000   1.0000
     0.3815   0.0037   0.0000   0.0000   0.0000   0.0000

          k = 0.0312 0.4688 0.4688 (  1048 PWs)   bands (ev):

   -41.6535 -18.3825 -18.3819 -18.0608  10.6572  11.2060  12.6107  12.6260
    14.5215  15.0192  15.8952  15.9948  16.3741  17.8157

     occupation numbers 
     1.0000   1.0000   1.0000   1.0000   1.0000   1.0000   1.0000   1.0000
     0.0523   0.0014   0.0000   0.0000   0.0000   0.0000

          k = 0.0938 0.0938 0.0938 (  1048 PWs)   bands (ev):

   -41.7128 -18.1393 -18.1324 -18.1324   8.1185  11.3158  11.3158  13.5824
    13.5824  13.9109  15.8250  15.8250  16.8791  17.5284

     occupation numbers 
     1.0000   1.0000   1.0000   1.0000   1.0000   1.0000   1.0000   0.9821
     0.9821   0.8306   0.0000   0.0000   0.0000   0.0000

          k = 0.0938 0.0938 0.1562 (  1049 PWs)   bands (ev):

   -41.7078 -18.1805 -18.1326 -18.1293   8.4168  11.4437  11.4676  13.5067
    13.5469  13.9698  15.6967  15.9041  16.5724  17.1683

     occupation numbers 
     1.0000   1.0000   1.0000   1.0000   1.0000   1.0000   1.0000   0.9897
     0.9862   0.7609   0.0000   0.0000   0.0000   0.0000

          k = 0.0938 0.0938 0.2188 (  1048 PWs)   bands (ev):

   -41.7013 -18.2390 -18.1278 -18.1252   8.8439  11.6276  11.6554  13.4501
    13.5003  13.9935  15.5148  15.9706  16.3270  16.7527

     occupation numbers 
     1.0000   1.0000   1.0000   1.0000   1.0000   1.0000   1.0000   0.9932
     0.9901   0.7277   0.0000   0.0000   0.0000   0.0000

          k = 0.0938 0.0938 0.2812 (  1047 PWs)   bands (ev):

   -41.6943 -18.3019 -18.1224 -18.1208   9.3743  11.8301  11.8560  13.4262
    13.4465  13.9692  15.2951  15.9001  16.2738  16.3508

     occupation numbers 
     1.0000   1.0000   1.0000   1.0000   1.0000   1.0000   1.0000   0.9942
     0.9933   0.7616   0.0002   0.0000   0.0000   0.0000

          k = 0.0938 0.0938 0.3438 (  1055 PWs)   bands (ev):

   -41.6878 -18.3595 -18.1174 -18.1167   9.9700  11.9259  12.1103  13.3847
    13.4474  13.9097  15.0637  15.7143  16.0105  16.3556

     occupation numbers 
     1.0000   1.0000   1.0000   1.0000   1.0000   1.0000   1.0000   0.9958
     0.9933   0.8319   0.0010   0.0000   0.0000   0.0000

          k = 0.0938 0.0938 0.4062 (  1057 PWs)   bands (ev):

   -41.6828 -18.4034 -18.1136 -18.1135  10.5748  11.8750  12.3574  13.3120
    13.5207  13.8456  14.8618  15.4884  15.7651  16.4613

     occupation numbers 
     1.0000   1.0000   1.0000   1.0000   1.0000   1.0000   1.0000   0.9975
     0.9885   0.8880   0.0045   0.0000   0.0000   0.0000

          k = 0.0938 0.0938 0.4688 (  1059 PWs)   bands (ev):

   -41.6801 -18.4270 -18.1119 -18.1115  11.0937  11.6634  12.5321  13.2442
    13.6162  13.7926  14.7410  15.3046  15.6366  16.5452

     occupation numbers 
     1.0000   1.0000   1.0000   1.0000   1.0000   1.0000   1.0000   0.9985
     0.9772   0.9213   0.0109   0.0002   0.0000   0.0000

          k = 0.0938 0.1562 0.1562 (  1054 PWs)   bands (ev):

   -41.7030 -18.1813 -18.1707 -18.1273   8.7034  11.5591  11.6203  13.4177
    13.4831  13.9866  15.7166  15.8865  16.3385  16.9895

     occupation numbers 
     1.0000   1.0000   1.0000   1.0000   1.0000   1.0000   1.0000   0.9946
     0.9913   0.7377   0.0000   0.0000   0.0000   0.0000

          k = 0.0938 0.1562 0.2188 (  1054 PWs)   bands (ev):

   -41.6966 -18.2345 -18.1701 -18.1227   9.1111  11.7044  11.8261  13.3322
    13.4219  13.9376  15.6177  15.9372  16.2062  16.6464

     occupation numbers 
     1.0000   1.0000   1.0000   1.0000   1.0000   1.0000   1.0000   0.9971
     0.9944   0.8012   0.0000   0.0000   0.0000   0.0000

          k = 0.0938 0.1562 0.2812 (  1050 PWs)   bands (ev):

   -41.6897 -18.2964 -18.1646 -18.1177   9.6114  11.8572  12.0426  13.2761
    13.3663  13.8335  15.4645  15.8601  16.2413  16.3661

     occupation numbers 
     1.0000   1.0000   1.0000   1.0000   1.0000   1.0000   1.0000   0.9981
     0.9963   0.8965   0.0001   0.0000   0.0000   0.0000

          k = 0.0938 0.1562 0.3438 (  1051 PWs)   bands (ev):

   -41.6832 -18.3533 -18.1593 -18.1130  10.1629  11.9507  12.2470  13.2338
    13.3578  13.7226  15.2971  15.6474  16.0643  16.5122

     occupation numbers 
     1.0000   1.0000   1.0000   1.0000   1.0000   1.0000   1.0000   0.9986
     0.9965   0.9514   0.0002   0.0000   0.0000   0.0000

          k = 0.0938 0.1562 0.4062 (  1053 PWs)   bands (ev):

   -41.6783 -18.3966 -18.1553 -18.1094  10.7080  11.8997  12.4335  13.1776
    13.4367  13.6492  15.1497  15.3977  15.8793  16.7581

     occupation numbers 
     1.0000   1.0000   1.0000   1.0000   1.0000   1.0000   1.0000   0.9991
     0.9938   0.9711   0.0005   0.0001   0.0000   0.0000

          k = 0.0938 0.1562 0.4688 (  1054 PWs)   bands (ev):

   -41.6757 -18.4199 -18.1532 -18.1074  11.1562  11.7100  12.5627  13.1270
    13.5326  13.6260  15.0674  15.2018  15.7623  16.9655

     occupation numbers 
     1.0000   1.0000   1.0000   1.0000   1.0000   1.0000   1.0000   0.9994
     0.9875   0.9755   0.0010   0.0004   0.0000   0.0000

          k = 0.0938 0.2188 0.2188 (  1052 PWs)   bands (ev):

   -41.6903 -18.2348 -18.2205 -18.1178   9.4849  11.7875  12.0616  13.2120
    13.3532  13.8050  15.6723  15.9564  16.1052  16.4852

     occupation numbers 
     1.0000   1.0000   1.0000   1.0000   1.0000   1.0000   1.0000   0.9988
     0.9966   0.9144   0.0000   0.0000   0.0000   0.0000

          k = 0.0938 0.2188 0.2812 (  1047 PWs)   bands (ev):

   -41.6836 -18.2896 -18.2201 -18.1126   9.9309  11.8578  12.3144  13.1221
    13.3095  13.6401  15.6295  15.8286  16.1095  16.5037

     occupation numbers 
     1.0000   1.0000   1.0000   1.0000   1.0000   1.0000   1.0000   0.9994
     0.9976   0.9729   0.0000   0.0000   0.0000   0.0000

          k = 0.0938 0.2188 0.3438 (  1045 PWs)   bands (ev):

   -41.6773 -18.3452 -18.2142 -18.1077  10.4006  11.8757  12.5313  13.0672
    13.3381  13.5026  15.5413  15.5741  16.1165  16.7274

     occupation numbers 
     1.0000   1.0000   1.0000   1.0000   1.0000   1.0000   1.0000   0.9996
     0.9970   0.9900   0.0000   0.0000   0.0000   0.0000

          k = 0.0938 0.2188 0.4062 (  1047 PWs)   bands (ev):

   -41.6725 -18.3877 -18.2096 -18.1039  10.8343  11.8056  12.6692  13.0414
    13.3663  13.5344  15.2969  15.4903  16.0279  17.0560

     occupation numbers 
     1.0000   1.0000   1.0000   1.0000   1.0000   1.0000   1.0000   0.9997
     0.9963   0.9874   0.0002   0.0000   0.0000   0.0000

          k = 0.0938 0.2188 0.4688 (  1054 PWs)   bands (ev):

   -41.6699 -18.4106 -18.2071 -18.1019  11.1548  11.6708  12.7327  13.0374
    13.3185  13.7171  15.0981  15.4480  15.9401  17.3538

     occupation numbers 
     1.0000   1.0000   1.0000   1.0000   1.0000   1.0000   1.0000   0.9997
     0.9974   0.9532   0.0008   0.0001   0.0000   0.0000

          k = 0.0938 0.2812 0.2812 (  1049 PWs)   bands (ev):

   -41.6770 -18.2880 -18.2739 -18.1070  10.2878  11.8296  12.6198  12.9992
    13.3071  13.4437  15.6139  15.9019  16.0069  16.7172

     occupation numbers 
     1.0000   1.0000   1.0000   1.0000   1.0000   1.0000   1.0000   0.9997
     0.9976   0.9935   0.0000   0.0000   0.0000   0.0000

          k = 0.0938 0.2812 0.3438 (  1048 PWs)   bands (ev):

   -41.6708 -18.3366 -18.2730 -18.1019  10.6268  11.7614  12.8780  12.9243
    13.2844  13.4316  15.4870  15.8355  16.0906  16.9968

     occupation numbers 
     1.0000   1.0000   1.0000   1.0000   1.0000   1.0000   0.9999   0.9999
     0.9980   0.9940   0.0000   0.0000   0.0000   0.0000

          k = 0.0938 0.2812 0.4062 (  1052 PWs)   bands (ev):

   -41.6662 -18.3781 -18.2679 -18.0980  10.9000  11.6609  12.8786  12.9752
    13.2378  13.7257  15.2856  15.8016  16.1009  17.3462

     occupation numbers 
     1.0000   1.0000   1.0000   1.0000   1.0000   1.0000   0.9999   0.9998
     0.9986   0.9503   0.0002   0.0000   0.0000   0.0000

          k = 0.0938 0.2812 0.4688 (  1053 PWs)   bands (ev):

   -41.6636 -18.4005 -18.2650 -18.0958  11.0697  11.5681  12.8865  12.9306
    13.2627  14.0565  15.0530  15.8154  16.0492  17.5214

     occupation numbers 
     1.0000   1.0000   1.0000   1.0000   1.0000   1.0000   0.9999   0.9998
     0.9983   0.6272   0.0011   0.0000   0.0000   0.0000

          k = 0.0938 0.3438 0.3438 (  1047 PWs)   bands (ev):

   -41.6649 -18.3328 -18.3228 -18.0966  10.7964  11.6347  12.8089  13.0818
    13.2650  13.6505  15.4618  15.9900  16.0704  17.2960

     occupation numbers 
     1.0000   1.0000   1.0000   1.0000   1.0000   1.0000   0.9999   0.9995
     0.9982   0.9708   0.0001   0.0000   0.0000   0.0000

          k = 0.0938 0.3438 0.4062 (  1052 PWs)   bands (ev):

   -41.6603 -18.3692 -18.3212 -18.0925  10.8997  11.5232  12.7518  12.9248
    13.5336  14.0348  15.3586  15.9552  16.1650  17.5795

     occupation numbers 
     1.0000   1.0000   1.0000   1.0000   1.0000   1.0000   1.0000   0.9999
     0.9874   0.6636   0.0001   0.0000   0.0000   0.0000

          k = 0.0938 0.3438 0.4688 (  1051 PWs)   bands (ev):

   -41.6578 -18.3912 -18.3180 -18.0902  10.9486  11.4558  12.7513  12.8126
    13.6528  14.5015  15.0807  16.0033  16.1565  17.6237

     occupation numbers 
     1.0000   1.0000   1.0000   1.0000   1.0000   1.0000   1.0000   0.9999
     0.9703   0.0601   0.0009   0.0000   0.0000   0.0000

          k = 0.0938 0.4062 0.4062 (  1050 PWs)   bands (ev):

   -41.6558 -18.3644 -18.3599 -18.0882  10.8684  11.4209  12.6684  12.7823
    13.9395  14.3802  15.4531  15.8450  16.3076  17.6839

     occupation numbers 
     1.0000   1.0000   1.0000   1.0000   1.0000   1.0000   1.0000   0.9999
     0.7990   0.1348   0.0001   0.0000   0.0000   0.0000

          k = 0.0938 0.4062 0.4688 (  1046 PWs)   bands (ev):

   -41.6534 -18.3841 -18.3584 -18.0860  10.8428  11.3674  12.6442  12.6839
    14.1447  14.8143  15.2733  15.8368  16.3602  17.7596

     occupation numbers 
     1.0000   1.0000   1.0000   1.0000   1.0000   1.0000   1.0000   1.0000
     0.4681   0.0064   0.0002   0.0000   0.0000   0.0000

          k = 0.0938 0.4688 0.4688 (  1047 PWs)   bands (ev):

   -41.6510 -18.3805 -18.3800 -18.0837  10.7832  11.3197  12.5936  12.6071
    14.5057  14.9887  15.5022  15.5840  16.4411  17.9208

     occupation numbers 
     1.0000   1.0000   1.0000   1.0000   1.0000   1.0000   1.0000   1.0000
     0.0583   0.0018   0.0000   0.0000   0.0000   0.0000

          k = 0.1562 0.1562 0.1562 (  1057 PWs)   bands (ev):

   -41.6982 -18.1804 -18.1675 -18.1675   8.9823  11.7202  11.7202  13.3643
    13.3643  13.9183  15.8179  15.8179  16.2252  17.1374

     occupation numbers 
     1.0000   1.0000   1.0000   1.0000   1.0000   1.0000   1.0000   0.9963
     0.9963   0.8229   0.0000   0.0000   0.0000   0.0000

          k = 0.1562 0.1562 0.2188 (  1049 PWs)   bands (ev):

   -41.6918 -18.2300 -18.1688 -18.1633   9.3766  11.8614  11.9164  13.2636
    13.2935  13.7746  15.7212  15.9149  16.2429  16.7236

     occupation numbers 
     1.0000   1.0000   1.0000   1.0000   1.0000   1.0000   1.0000   0.9983
     0.9978   0.9304   0.0000   0.0000   0.0000   0.0000

          k = 0.1562 0.1562 0.2812 (  1051 PWs)   bands (ev):

   -41.6850 -18.2912 -18.1623 -18.1587   9.8552  12.0324  12.0857  13.2105
    13.2126  13.6122  15.6062  15.9035  16.3280  16.4275

     occupation numbers 
[...]
    13.2072  13.5564  15.7767  15.9286  16.3456  16.6018

     occupation numbers 
     1.0000   1.0000   1.0000   1.0000   1.0000   1.0000   1.0000   0.9992
     0.9988   0.9852   0.0000   0.0000   0.0000   0.0000

          k = 0.1562 0.2188 0.2812 (  1049 PWs)   bands (ev):

   -41.6789 -18.2844 -18.2160 -18.1551  10.1841  12.0588  12.3355  13.0601
    13.1460  13.3673  15.7298  15.9171  16.2473  16.6723

     occupation numbers 
     1.0000   1.0000   1.0000   1.0000   1.0000   1.0000   1.0000   0.9996
     0.9993   0.9963   0.0000   0.0000   0.0000   0.0000

          k = 0.1562 0.2188 0.3438 (  1049 PWs)   bands (ev):

   -41.6727 -18.3398 -18.2101 -18.1499  10.6370  12.0869  12.4695  12.9928
    13.1680  13.3007  15.6369  15.7460  16.0455  17.0198

     occupation numbers 
     1.0000   1.0000   1.0000   1.0000   1.0000   1.0000   1.0000   0.9998
     0.9991   0.9977   0.0000   0.0000   0.0000   0.0000

          k = 0.1562 0.2188 0.4062 (  1049 PWs)   bands (ev):

   -41.6680 -18.3820 -18.2055 -18.1458  11.0439  11.9961  12.5378  12.9335
    13.2228  13.4504  15.3975  15.6468  15.8490  17.3679

     occupation numbers 
     1.0000   1.0000   1.0000   1.0000   1.0000   1.0000   1.0000   0.9998
     0.9987   0.9931   0.0001   0.0000   0.0000   0.0000

          k = 0.1562 0.2188 0.4688 (  1053 PWs)   bands (ev):

   -41.6654 -18.4047 -18.2030 -18.1436  11.3382  11.8392  12.5865  12.8928
    13.2487  13.6754  15.1436  15.6381  15.7029  17.4313

     occupation numbers 
     1.0000   1.0000   1.0000   1.0000   1.0000   1.0000   1.0000   0.9999
     0.9984   0.9651   0.0006   0.0000   0.0000   0.0000

          k = 0.1562 0.2812 0.2812 (  1049 PWs)   bands (ev):

   -41.6724 -18.2822 -18.2704 -18.1494  10.5490  12.0369  12.6269  12.9421
    13.1051  13.1822  15.6932  15.9540  16.1533  16.9817

     occupation numbers 
     1.0000   1.0000   1.0000   1.0000   1.0000   1.0000   1.0000   0.9998
     0.9995   0.9990   0.0000   0.0000   0.0000   0.0000

          k = 0.1562 0.2812 0.3438 (  1045 PWs)   bands (ev):

   -41.6663 -18.3316 -18.2689 -18.1440  10.8863  11.9662  12.7962  12.8695
    13.1162  13.2221  15.5497  15.8687  16.1339  17.2831

     occupation numbers 
     1.0000   1.0000   1.0000   1.0000   1.0000   1.0000   0.9999   0.9999
     0.9994   0.9987   0.0000   0.0000   0.0000   0.0000

          k = 0.1562 0.2812 0.4062 (  1047 PWs)   bands (ev):

   -41.6616 -18.3730 -18.2639 -18.1399  11.1430  11.8575  12.7709  12.8346
    13.1738  13.5522  15.3286  15.7643  16.0755  17.4156

     occupation numbers 
     1.0000   1.0000   1.0000   1.0000   1.0000   1.0000   1.0000   0.9999
     0.9991   0.9856   0.0001   0.0000   0.0000   0.0000

          k = 0.1562 0.2812 0.4688 (  1050 PWs)   bands (ev):

   -41.6591 -18.3954 -18.2611 -18.1377  11.2930  11.7617  12.7446  12.8161
    13.2192  13.8964  15.0736  15.7076  16.0240  17.4980

     occupation numbers 
     1.0000   1.0000   1.0000   1.0000   1.0000   1.0000   1.0000   0.9999
     0.9987   0.8451   0.0010   0.0000   0.0000   0.0000

          k = 0.1562 0.3438 0.3438 (  1046 PWs)   bands (ev):

   -41.6603 -18.3276 -18.3192 -18.1386  11.0612  11.8350  12.7609  12.9241
    13.2166  13.3981  15.4574  15.8261  16.2569  17.3666

     occupation numbers 
     1.0000   1.0000   1.0000   1.0000   1.0000   1.0000   1.0000   0.9999
     0.9988   0.9953   0.0001   0.0000   0.0000   0.0000

          k = 0.1562 0.3438 0.4062 (  1046 PWs)   bands (ev):

   -41.6557 -18.3648 -18.3173 -18.1345  11.1517  11.7235  12.7054  12.8154
    13.4406  13.7926  15.3149  15.7093  16.3169  17.5048

     occupation numbers 
     1.0000   1.0000   1.0000   1.0000   1.0000   1.0000   1.0000   0.9999
     0.9936   0.9213   0.0002   0.0000   0.0000   0.0000

          k = 0.1562 0.3438 0.4688 (  1043 PWs)   bands (ev):

   -41.6532 -18.3868 -18.3143 -18.1322  11.1864  11.6592  12.6968  12.7350
    13.5389  14.2394  15.0488  15.6534  16.3241  17.6065

     occupation numbers 
     1.0000   1.0000   1.0000   1.0000   1.0000   1.0000   1.0000   1.0000
     0.9869   0.3048   0.0011   0.0000   0.0000   0.0000

          k = 0.1562 0.4062 0.4062 (  1046 PWs)   bands (ev):

   -41.6512 -18.3601 -18.3564 -18.1303  11.1160  11.6257  12.6325  12.7174
    13.8440  14.0980  15.3159  15.5311  16.4652  17.6546

     occupation numbers 
     1.0000   1.0000   1.0000   1.0000   1.0000   1.0000   1.0000   1.0000
     0.8891   0.5535   0.0002   0.0000   0.0000   0.0000

          k = 0.1562 0.4062 0.4688 (  1040 PWs)   bands (ev):

   -41.6488 -18.3802 -18.3548 -18.1281  11.0856  11.5750  12.6092  12.6398
    14.0245  14.5501  15.0791  15.4604  16.5180  17.7819

     occupation numbers 
     1.0000   1.0000   1.0000   1.0000   1.0000   1.0000   1.0000   1.0000
     0.6804   0.0428   0.0009   0.0001   0.0000   0.0000

          k = 0.1562 0.4688 0.4688 (  1040 PWs)   bands (ev):

   -41.6463 -18.3768 -18.3764 -18.1258  11.0277  11.5289  12.5651  12.5762
    14.4450  14.7766  15.1070  15.1697  16.5956  17.9515

     occupation numbers 
     1.0000   1.0000   1.0000   1.0000   1.0000   1.0000   1.0000   1.0000
     0.0883   0.0084   0.0007   0.0005   0.0000   0.0000

          k = 0.2188 0.2188 0.2188 (  1039 PWs)   bands (ev):

   -41.6795 -18.2259 -18.2127 -18.2127  10.1080  12.2013  12.2013  13.0715
    13.0715  13.2769  15.8820  15.8820  16.6344  16.7440

     occupation numbers 
     1.0000   1.0000   1.0000   1.0000   1.0000   1.0000   1.0000   0.9996
     0.9996   0.9981   0.0000   0.0000   0.0000   0.0000

          k = 0.2188 0.2188 0.2812 (  1046 PWs)   bands (ev):

   -41.6729 -18.2779 -18.2128 -18.2080  10.5272  12.2935  12.3841  12.9846
    12.9861  13.0819  15.8117  15.8893  16.4106  16.8956

     occupation numbers 
     1.0000   1.0000   1.0000   1.0000   1.0000   1.0000   1.0000   0.9998
     0.9998   0.9995   0.0000   0.0000   0.0000   0.0000

          k = 0.2188 0.2188 0.3438 (  1048 PWs)   bands (ev):

   -41.6668 -18.3327 -18.2057 -18.2036  10.9427  12.3419  12.3861  12.9046
    13.0108  13.1208  15.7160  15.7223  16.1694  17.1489

     occupation numbers 
     1.0000   1.0000   1.0000   1.0000   1.0000   1.0000   1.0000   0.9999
     0.9997   0.9994   0.0000   0.0000   0.0000   0.0000

          k = 0.2188 0.2188 0.4062 (  1051 PWs)   bands (ev):

   -41.6621 -18.3745 -18.2002 -18.2001  11.2891  12.1479  12.4666  12.8356
    13.0900  13.3765  15.4172  15.6143  16.0300  17.3450

     occupation numbers 
     1.0000   1.0000   1.0000   1.0000   1.0000   1.0000   1.0000   0.9999
     0.9995   0.9960   0.0001   0.0000   0.0000   0.0000

          k = 0.2188 0.2188 0.4688 (  1044 PWs)   bands (ev):

   -41.6595 -18.3970 -18.1984 -18.1971  11.5204  11.9694  12.5181  12.7914
    13.1513  13.6469  15.1228  15.5494  15.9694  17.4479

     occupation numbers 
     1.0000   1.0000   1.0000   1.0000   1.0000   1.0000   1.0000   0.9999
     0.9992   0.9716   0.0007   0.0000   0.0000   0.0000

          k = 0.2188 0.2812 0.2812 (  1046 PWs)   bands (ev):

   -41.6664 -18.2748 -18.2659 -18.2043  10.9062  12.3123  12.6311  12.8499
    12.8719  12.9440  15.7425  15.8531  16.4426  16.9260

     occupation numbers 
     1.0000   1.0000   1.0000   1.0000   1.0000   1.0000   1.0000   0.9999
     0.9999   0.9998   0.0000   0.0000   0.0000   0.0000

          k = 0.2188 0.2812 0.3438 (  1046 PWs)   bands (ev):

   -41.6603 -18.3251 -18.2635 -18.1987  11.2410  12.2198  12.6568  12.7997
    12.9567  13.0290  15.5852  15.7258  16.3799  17.1356

     occupation numbers 
     1.0000   1.0000   1.0000   1.0000   1.0000   1.0000   1.0000   0.9999
     0.9998   0.9997   0.0000   0.0000   0.0000   0.0000

          k = 0.2188 0.2812 0.4062 (  1047 PWs)   bands (ev):

   -41.6557 -18.3664 -18.2586 -18.1944  11.4656  12.0773  12.6203  12.7556
    13.0449  13.3940  15.3396  15.5753  16.3226  17.3648

     occupation numbers 
     1.0000   1.0000   1.0000   1.0000   1.0000   1.0000   1.0000   1.0000
     0.9996   0.9955   0.0001   0.0000   0.0000   0.0000

          k = 0.2188 0.2812 0.4688 (  1042 PWs)   bands (ev):

   -41.6531 -18.3887 -18.2560 -18.1920  11.5784  11.9701  12.6085  12.7335
    13.1188  13.7296  15.0571  15.5023  16.2932  17.4983

     occupation numbers 
     1.0000   1.0000   1.0000   1.0000   1.0000   1.0000   1.0000   1.0000
     0.9994   0.9490   0.0011   0.0000   0.0000   0.0000

          k = 0.2188 0.3438 0.3438 (  1045 PWs)   bands (ev):

   -41.6543 -18.3208 -18.3146 -18.1933  11.4348  12.0759  12.7038  12.7747
    13.0998  13.1405  15.4514  15.6215  16.5218  17.2621

     occupation numbers 
     1.0000   1.0000   1.0000   1.0000   1.0000   1.0000   1.0000   1.0000
     0.9995   0.9993   0.0001   0.0000   0.0000   0.0000

          k = 0.2188 0.3438 0.4062 (  1047 PWs)   bands (ev):

   -41.6497 -18.3589 -18.3122 -18.1890  11.5041  11.9637  12.6523  12.7177
    13.2639  13.5381  15.2720  15.4717  16.5698  17.4703

     occupation numbers 
     1.0000   1.0000   1.0000   1.0000   1.0000   1.0000   1.0000   1.0000
     0.9982   0.9870   0.0002   0.0001   0.0000   0.0000

          k = 0.2188 0.3438 0.4688 (  1046 PWs)   bands (ev):

   -41.6473 -18.3809 -18.3093 -18.1867  11.5139  11.9039  12.6361  12.6693
    13.3574  13.9373  15.0017  15.4104  16.5787  17.6149

     occupation numbers 
     1.0000   1.0000   1.0000   1.0000   1.0000   1.0000   1.0000   1.0000
     0.9965   0.8016   0.0016   0.0001   0.0000   0.0000

          k = 0.2188 0.4062 0.4062 (  1044 PWs)   bands (ev):

   -41.6452 -18.3544 -18.3517 -18.1849  11.4644  11.8809  12.5927  12.6595
    13.6853  13.7346  15.2361  15.2541  16.7090  17.6562

     occupation numbers 
     1.0000   1.0000   1.0000   1.0000   1.0000   1.0000   1.0000   1.0000
     0.9626   0.9471   0.0003   0.0003   0.0000   0.0000

          k = 0.2188 0.4062 0.4688 (  1042 PWs)   bands (ev):

   -41.6427 -18.3750 -18.3499 -18.1827  11.4270  11.8375  12.5729  12.5993
    13.8042  14.1591  14.9531  15.2328  16.7594  17.8064

     occupation numbers 
     1.0000   1.0000   1.0000   1.0000   1.0000   1.0000   1.0000   1.0000
     0.9149   0.4418   0.0023   0.0003   0.0000   0.0000

          k = 0.2188 0.4688 0.4688 (  1029 PWs)   bands (ev):

   -41.6403 -18.3720 -18.3717 -18.1805  11.3738  11.7991  12.5358  12.5460
    14.2308  14.3177  14.8001  15.0839  16.8330  17.9721

     occupation numbers 
     1.0000   1.0000   1.0000   1.0000   1.0000   1.0000   1.0000   1.0000
     0.3184   0.1978   0.0071   0.0009   0.0000   0.0000

          k = 0.2812 0.2812 0.2812 (  1045 PWs)   bands (ev):

   -41.6599 -18.2691 -18.2610 -18.2610  11.3015  12.5733  12.6272  12.6272
    12.8024  12.8024  15.7088  15.7088  16.7576  16.7576

     occupation numbers 
     1.0000   1.0000   1.0000   1.0000   1.0000   1.0000   1.0000   1.0000
     0.9999   0.9999   0.0000   0.0000   0.0000   0.0000

          k = 0.2812 0.2812 0.3438 (  1038 PWs)   bands (ev):

   -41.6538 -18.3181 -18.2586 -18.2564  11.6246  12.3496  12.6130  12.7459
    12.7897  12.9557  15.5503  15.5588  16.6671  17.0881

     occupation numbers 
     1.0000   1.0000   1.0000   1.0000   1.0000   1.0000   1.0000   1.0000
     0.9999   0.9998   0.0000   0.0000   0.0000   0.0000

          k = 0.2812 0.2812 0.4062 (  1042 PWs)   bands (ev):

   -41.6492 -18.3592 -18.2529 -18.2529  11.7774  12.1829  12.5939  12.7084
    12.9215  13.3087  15.2766  15.4429  16.6230  17.3747

     occupation numbers 
     1.0000   1.0000   1.0000   1.0000   1.0000   1.0000   1.0000   1.0000
     0.9999   0.9976   0.0002   0.0001   0.0000   0.0000

          k = 0.2812 0.2812 0.4688 (  1045 PWs)   bands (ev):

   -41.6467 -18.3814 -18.2511 -18.2498  11.8156  12.0941  12.5806  12.6899
    13.0280  13.6354  14.9987  15.3818  16.6050  17.5394

     occupation numbers 
     1.0000   1.0000   1.0000   1.0000   1.0000   1.0000   1.0000   1.0000
     0.9997   0.9738   0.0017   0.0001   0.0000   0.0000

          k = 0.2812 0.3438 0.3438 (  1038 PWs)   bands (ev):

   -41.6478 -18.3135 -18.3096 -18.2519  11.8799  12.2444  12.6512  12.7436
    12.8145  13.0390  15.4031  15.4276  16.8486  17.2173

     occupation numbers 
     1.0000   1.0000   1.0000   1.0000   1.0000   1.0000   1.0000   1.0000
     0.9999   0.9997   0.0001   0.0001   0.0000   0.0000

          k = 0.2812 0.3438 0.4062 (  1040 PWs)   bands (ev):

   -41.6432 -18.3526 -18.3066 -18.2476  11.9071  12.1596  12.6136  12.7019
    13.0176  13.3395  15.1818  15.3123  16.8854  17.4750

     occupation numbers 
     1.0000   1.0000   1.0000   1.0000   1.0000   1.0000   1.0000   1.0000
     0.9997   0.9970   0.0004   0.0002   0.0000   0.0000

          k = 0.2812 0.3438 0.4688 (  1043 PWs)   bands (ev):

   -41.6408 -18.3746 -18.3040 -18.2453  11.8727  12.1145  12.6101  12.6536
    13.1391  13.6705  14.9312  15.2626  16.8916  17.6477

     occupation numbers 
     1.0000   1.0000   1.0000   1.0000   1.0000   1.0000   1.0000   1.0000
     0.9993   0.9663   0.0027   0.0002   0.0000   0.0000

          k = 0.2812 0.4062 0.4062 (  1039 PWs)   bands (ev):

   -41.6387 -18.3483 -18.3466 -18.2436  11.8724  12.1258  12.5622  12.6575
    13.3739  13.4717  15.0622  15.1606  17.0251  17.6720

     occupation numbers 
     1.0000   1.0000   1.0000   1.0000   1.0000   1.0000   1.0000   1.0000
     0.9961   0.9920   0.0010   0.0005   0.0000   0.0000

          k = 0.2812 0.4062 0.4688 (  1041 PWs)   bands (ev):

   -41.6362 -18.3695 -18.3447 -18.2414  11.8303  12.0978  12.5540  12.5930
    13.5067  13.7802  14.8492  15.1140  17.0719  17.8328

     occupation numbers 
     1.0000   1.0000   1.0000   1.0000   1.0000   1.0000   1.0000   1.0000
     0.9897   0.9276   0.0049   0.0007   0.0000   0.0000

          k = 0.2812 0.4688 0.4688 (  1036 PWs)   bands (ev):

   -41.6337 -18.3668 -18.3666 -18.2393  11.7928  12.0827  12.5185  12.5345
    13.8594  13.8640  14.7065  15.0195  17.1431  17.9907

     occupation numbers 
     1.0000   1.0000   1.0000   1.0000   1.0000   1.0000   1.0000   1.0000
     0.8774   0.8738   0.0140   0.0014   0.0000   0.0000

          k = 0.3438 0.3438 0.3438 (  1039 PWs)   bands (ev):

   -41.6418 -18.3074 -18.3050 -18.3050  12.1854  12.3577  12.6164  12.6164
    12.9225  12.9225  15.2773  15.2773  17.2050  17.2050

     occupation numbers 
     1.0000   1.0000   1.0000   1.0000   1.0000   1.0000   1.0000   1.0000
     0.9999   0.9999   0.0002   0.0002   0.0000   0.0000

          k = 0.3438 0.3438 0.4062 (  1039 PWs)   bands (ev):

   -41.6372 -18.3467 -18.3014 -18.3014  12.1476  12.3326  12.6098  12.8076
    12.8264  13.2103  15.0704  15.1804  17.2057  17.5249

     occupation numbers 
     1.0000   1.0000   1.0000   1.0000   1.0000   1.0000   1.0000   0.9999
     0.9999   0.9988   0.0010   0.0004   0.0000   0.0000

          k = 0.3438 0.3438 0.4688 (  1044 PWs)   bands (ev):

   -41.6348 -18.3688 -18.2995 -18.2985  12.1181  12.2415  12.6356  12.7142
    12.9903  13.5035  14.8616  15.1339  17.2085  17.7179

     occupation numbers 
     1.0000   1.0000   1.0000   1.0000   1.0000   1.0000   1.0000   1.0000
     0.9998   0.9899   0.0045   0.0006   0.0000   0.0000

          k = 0.3438 0.4062 0.4062 (  1038 PWs)   bands (ev):

   -41.6326 -18.3426 -18.3419 -18.2974  12.1711  12.3946  12.5544  12.7578
    13.0801  13.2371  14.9488  15.0477  17.3805  17.6914

     occupation numbers 
     1.0000   1.0000   1.0000   1.0000   1.0000   1.0000   1.0000   1.0000
     0.9995   0.9986   0.0024   0.0012   0.0000   0.0000

          k = 0.3438 0.4062 0.4688 (  1043 PWs)   bands (ev):

   -41.6302 -18.3643 -18.3399 -18.2952  12.1928  12.3087  12.5830  12.6688
    13.2036  13.4660  14.7864  14.9986  17.4203  17.8614

     occupation numbers 
     1.0000   1.0000   1.0000   1.0000   1.0000   1.0000   1.0000   1.0000
     0.9989   0.9923   0.0078   0.0017   0.0000   0.0000

          k = 0.3438 0.4688 0.4688 (  1042 PWs)   bands (ev):

   -41.6277 -18.3619 -18.3618 -18.2932  12.2267  12.3315  12.5265  12.5714
    13.4767  13.4915  14.6821  14.9216  17.4950  18.0069

     occupation numbers 
     1.0000   1.0000   1.0000   1.0000   1.0000   1.0000   1.0000   1.0000
     0.9917   0.9907   0.0167   0.0029   0.0000   0.0000

          k = 0.4062 0.4062 0.4062 (  1046 PWs)   bands (ev):

   -41.6280 -18.3383 -18.3383 -18.3383  12.2667  12.5792  12.5792  12.9245
    13.0219  13.0219  14.8892  14.8892  17.7077  17.7077

     occupation numbers 
     1.0000   1.0000   1.0000   1.0000   1.0000   1.0000   1.0000   0.9999
     0.9997   0.9997   0.0037   0.0037   0.0000   0.0000

          k = 0.4062 0.4062 0.4688 (  1048 PWs)   bands (ev):

   -41.6255 -18.3604 -18.3364 -18.3359  12.3507  12.4695  12.6306  12.8669
    12.9925  13.2591  14.7431  14.8639  17.7168  17.9102

     occupation numbers 
     1.0000   1.0000   1.0000   1.0000   1.0000   1.0000   1.0000   0.9999
     0.9998   0.9983   0.0107   0.0044   0.0000   0.0000

          k = 0.4062 0.4688 0.4688 (  1056 PWs)   bands (ev):

   -41.6230 -18.3582 -18.3582 -18.3341  12.4547  12.5687  12.5738  12.7476
    13.1786  13.1893  14.6751  14.7889  17.8217  18.0190

     occupation numbers 
     1.0000   1.0000   1.0000   1.0000   1.0000   1.0000   1.0000   1.0000
     0.9991   0.9990   0.0175   0.0077   0.0000   0.0000

          k = 0.4688 0.4688 0.4688 (  1064 PWs)   bands (ev):

   -41.6205 -18.3563 -18.3563 -18.3562  12.5633  12.6337  12.6337  12.9896
    12.9896  13.0116  14.6733  14.6733  18.0255  18.0255

     occupation numbers 
     1.0000   1.0000   1.0000   1.0000   1.0000   1.0000   1.0000   0.9998
     0.9998   0.9997   0.0178   0.0178   0.0000   0.0000

     the Fermi energy is    14.1273 ev

     Writing output data file 1.save/

     init_run     :      0.66s CPU      0.58s WALL (       1 calls)
     electrons    :    167.22s CPU     84.97s WALL (       1 calls)

     Called by init_run:
     wfcinit      :      0.00s CPU      0.00s WALL (       1 calls)
     wfcinit:atom :      0.08s CPU      0.04s WALL (     120 calls)
     wfcinit:wfcr :      2.99s CPU      1.50s WALL (     120 calls)
     potinit      :      0.01s CPU      0.01s WALL (       1 calls)
     hinit0       :      0.53s CPU      0.51s WALL (       1 calls)

     Called by electrons:
     c_bands      :    167.21s CPU     84.97s WALL (       1 calls)
     v_of_rho     :      0.00s CPU      0.00s WALL (       1 calls)
     v_h          :      0.00s CPU      0.00s WALL (       1 calls)
     v_xc         :      0.00s CPU      0.00s WALL (       1 calls)
     newd         :      0.12s CPU      0.06s WALL (       1 calls)

     Called by c_bands:
     init_us_2    :      0.10s CPU      0.06s WALL (     120 calls)
     ccgdiagg     :    155.17s CPU     78.90s WALL (     518 calls)
     wfcrot       :     11.46s CPU      5.77s WALL (     518 calls)

     Called by sum_band:

     Called by *cgdiagg:
     h_psi        :    115.49s CPU     58.65s WALL (   85459 calls)
     s_psi        :     23.38s CPU     11.89s WALL (  170400 calls)
     cdiaghg      :      0.10s CPU      0.05s WALL (     518 calls)

     Called by h_psi:
     h_psi:pot    :    114.60s CPU     58.18s WALL (   85459 calls)
     h_psi:calbec :     12.57s CPU      6.34s WALL (   85459 calls)
     vloc_psi     :     88.81s CPU     45.17s WALL (   85459 calls)
     add_vuspsi   :     12.41s CPU      6.27s WALL (   85459 calls)
     h_1psi       :    119.23s CPU     60.58s WALL (   84941 calls)

     General routines
     calbec       :     23.17s CPU     11.74s WALL (  170400 calls)
     fft          :      0.00s CPU      0.00s WALL (       6 calls)
     fftw         :     82.77s CPU     42.10s WALL (  184866 calls)
     davcio       :      0.03s CPU      0.02s WALL (     240 calls)

     Parallel routines

     PWSCF        :  2m49.22s CPU     1m26.98s WALL


   This run was terminated on:  18: 2:36  21Jun2019            

=------------------------------------------------------------------------------=
   JOB DONE.
=------------------------------------------------------------------------------=
